[Molden Format]
[Atoms] (Angs)
  C      1    6     -0.00714236     -1.70213747     -0.00000000
  H      2    1     -2.06882847     -1.44022412      0.00000000
  H      3    1     -0.12337987     -2.77567521      0.00000000
  H      4    1      0.04651892      1.98813947     -0.00000000
  C      5    6     -1.21953563      0.40211669      0.00000000
  O      6    8     -2.25921553      1.03043814      0.00000000
  C      7    6      1.28797806      0.34644937     -0.00000000
  O      8    8      2.31273661      1.00537216     -0.00000000
  N      9    7      0.03446295      0.97739857     -0.00000000
  N     10    7     -1.17287765     -0.98229824      0.00000000
  C     11    6      1.20107039     -1.10433419     -0.00000000
  H     12    1      2.11220096     -1.67699125     -0.00000000
[GTO]
1    0
S    1    1.000000
   4.56324000E+03    1.96665000E-03 
S    1    1.000000
   6.82024000E+02    1.52306000E-02 
S    1    1.000000
   1.54973000E+02    7.61269000E-02 
S    1    1.000000
   4.44553000E+01    2.60801000E-01 
S    1    1.000000
   1.30290000E+01    6.16462000E-01 
S    1    1.000000
   1.82773000E+00    2.21006000E-01 
SP   3    1.000000
   2.09642000E+01    1.14660000E-01   4.02487000E-02 
   4.80331000E+00    9.19999000E-01   2.37594000E-01 
   1.45933000E+00   -3.03068000E-03   8.15854000E-01 
SP   1    1.000000
   4.83456000E-01    1.00000000E+00   1.00000000E+00 
SP   1    1.000000
   1.45585000E-01    1.00000000E+00   1.00000000E+00 
SP   1    1.000000
   4.38000000E-02    1.00000000E+00   1.00000000E+00 
SP   1    1.000000
   1.31927711E-02    1.00000000E+00   1.00000000E+00 
D    1    1.000000
   6.26000000E-01    1.00000000E+00 

2    0
S    3    1.000000
   3.38650000E+01    2.54938000E-02 
   5.09479000E+00    1.90373000E-01 
   1.15879000E+00    8.52161000E-01 
S    1    1.000000
   3.25840000E-01    1.00000000E+00 
S    1    1.000000
   1.02741000E-01    1.00000000E+00 
S    1    1.000000
   3.60000000E-02    1.00000000E+00 
P    1    1.000000
   7.50000000E-01    1.00000000E+00 

3    0
S    3    1.000000
   3.38650000E+01    2.54938000E-02 
   5.09479000E+00    1.90373000E-01 
   1.15879000E+00    8.52161000E-01 
S    1    1.000000
   3.25840000E-01    1.00000000E+00 
S    1    1.000000
   1.02741000E-01    1.00000000E+00 
S    1    1.000000
   3.60000000E-02    1.00000000E+00 
P    1    1.000000
   7.50000000E-01    1.00000000E+00 

4    0
S    3    1.000000
   3.38650000E+01    2.54938000E-02 
   5.09479000E+00    1.90373000E-01 
   1.15879000E+00    8.52161000E-01 
S    1    1.000000
   3.25840000E-01    1.00000000E+00 
S    1    1.000000
   1.02741000E-01    1.00000000E+00 
S    1    1.000000
   3.60000000E-02    1.00000000E+00 
P    1    1.000000
   7.50000000E-01    1.00000000E+00 

5    0
S    1    1.000000
   4.56324000E+03    1.96665000E-03 
S    1    1.000000
   6.82024000E+02    1.52306000E-02 
S    1    1.000000
   1.54973000E+02    7.61269000E-02 
S    1    1.000000
   4.44553000E+01    2.60801000E-01 
S    1    1.000000
   1.30290000E+01    6.16462000E-01 
S    1    1.000000
   1.82773000E+00    2.21006000E-01 
SP   3    1.000000
   2.09642000E+01    1.14660000E-01   4.02487000E-02 
   4.80331000E+00    9.19999000E-01   2.37594000E-01 
   1.45933000E+00   -3.03068000E-03   8.15854000E-01 
SP   1    1.000000
   4.83456000E-01    1.00000000E+00   1.00000000E+00 
SP   1    1.000000
   1.45585000E-01    1.00000000E+00   1.00000000E+00 
SP   1    1.000000
   4.38000000E-02    1.00000000E+00   1.00000000E+00 
SP   1    1.000000
   1.31927711E-02    1.00000000E+00   1.00000000E+00 
D    1    1.000000
   6.26000000E-01    1.00000000E+00 

6    0
S    1    1.000000
   8.58850000E+03    1.89515000E-03 
S    1    1.000000
   1.29723000E+03    1.43859000E-02 
S    1    1.000000
   2.99296000E+02    7.07320000E-02 
S    1    1.000000
   8.73771000E+01    2.40001000E-01 
S    1    1.000000
   2.56789000E+01    5.94797000E-01 
S    1    1.000000
   3.74004000E+00    2.80802000E-01 
SP   3    1.000000
   4.21175000E+01    1.13889000E-01   3.65114000E-02 
   9.62837000E+00    9.20811000E-01   2.37153000E-01 
   2.85332000E+00   -3.27447000E-03   8.19702000E-01 
SP   1    1.000000
   9.05661000E-01    1.00000000E+00   1.00000000E+00 
SP   1    1.000000
   2.55611000E-01    1.00000000E+00   1.00000000E+00 
SP   1    1.000000
   8.45000000E-02    1.00000000E+00   1.00000000E+00 
SP   1    1.000000
   2.54518072E-02    1.00000000E+00   1.00000000E+00 
D    1    1.000000
   1.29200000E+00    1.00000000E+00 

7    0
S    1    1.000000
   4.56324000E+03    1.96665000E-03 
S    1    1.000000
   6.82024000E+02    1.52306000E-02 
S    1    1.000000
   1.54973000E+02    7.61269000E-02 
S    1    1.000000
   4.44553000E+01    2.60801000E-01 
S    1    1.000000
   1.30290000E+01    6.16462000E-01 
S    1    1.000000
   1.82773000E+00    2.21006000E-01 
SP   3    1.000000
   2.09642000E+01    1.14660000E-01   4.02487000E-02 
   4.80331000E+00    9.19999000E-01   2.37594000E-01 
   1.45933000E+00   -3.03068000E-03   8.15854000E-01 
SP   1    1.000000
   4.83456000E-01    1.00000000E+00   1.00000000E+00 
SP   1    1.000000
   1.45585000E-01    1.00000000E+00   1.00000000E+00 
SP   1    1.000000
   4.38000000E-02    1.00000000E+00   1.00000000E+00 
SP   1    1.000000
   1.31927711E-02    1.00000000E+00   1.00000000E+00 
D    1    1.000000
   6.26000000E-01    1.00000000E+00 

8    0
S    1    1.000000
   8.58850000E+03    1.89515000E-03 
S    1    1.000000
   1.29723000E+03    1.43859000E-02 
S    1    1.000000
   2.99296000E+02    7.07320000E-02 
S    1    1.000000
   8.73771000E+01    2.40001000E-01 
S    1    1.000000
   2.56789000E+01    5.94797000E-01 
S    1    1.000000
   3.74004000E+00    2.80802000E-01 
SP   3    1.000000
   4.21175000E+01    1.13889000E-01   3.65114000E-02 
   9.62837000E+00    9.20811000E-01   2.37153000E-01 
   2.85332000E+00   -3.27447000E-03   8.19702000E-01 
SP   1    1.000000
   9.05661000E-01    1.00000000E+00   1.00000000E+00 
SP   1    1.000000
   2.55611000E-01    1.00000000E+00   1.00000000E+00 
SP   1    1.000000
   8.45000000E-02    1.00000000E+00   1.00000000E+00 
SP   1    1.000000
   2.54518072E-02    1.00000000E+00   1.00000000E+00 
D    1    1.000000
   1.29200000E+00    1.00000000E+00 

9    0
S    1    1.000000
   6.29348000E+03    1.96979000E-03 
S    1    1.000000
   9.49044000E+02    1.49613000E-02 
S    1    1.000000
   2.18776000E+02    7.35006000E-02 
S    1    1.000000
   6.36916000E+01    2.48937000E-01 
S    1    1.000000
   1.88282000E+01    6.02460000E-01 
S    1    1.000000
   2.72023000E+00    2.56202000E-01 
SP   3    1.000000
   3.06331000E+01    1.11906000E-01   3.83119000E-02 
   7.02614000E+00    9.21666000E-01   2.37403000E-01 
   2.11205000E+00   -2.56919000E-03   8.17592000E-01 
SP   1    1.000000
   6.84009000E-01    1.00000000E+00   1.00000000E+00 
SP   1    1.000000
   2.00878000E-01    1.00000000E+00   1.00000000E+00 
SP   1    1.000000
   6.39000000E-02    1.00000000E+00   1.00000000E+00 
SP   1    1.000000
   1.92469880E-02    1.00000000E+00   1.00000000E+00 
D    1    1.000000
   9.13000000E-01    1.00000000E+00 

10    0
S    1    1.000000
   6.29348000E+03    1.96979000E-03 
S    1    1.000000
   9.49044000E+02    1.49613000E-02 
S    1    1.000000
   2.18776000E+02    7.35006000E-02 
S    1    1.000000
   6.36916000E+01    2.48937000E-01 
S    1    1.000000
   1.88282000E+01    6.02460000E-01 
S    1    1.000000
   2.72023000E+00    2.56202000E-01 
SP   3    1.000000
   3.06331000E+01    1.11906000E-01   3.83119000E-02 
   7.02614000E+00    9.21666000E-01   2.37403000E-01 
   2.11205000E+00   -2.56919000E-03   8.17592000E-01 
SP   1    1.000000
   6.84009000E-01    1.00000000E+00   1.00000000E+00 
SP   1    1.000000
   2.00878000E-01    1.00000000E+00   1.00000000E+00 
SP   1    1.000000
   6.39000000E-02    1.00000000E+00   1.00000000E+00 
SP   1    1.000000
   1.92469880E-02    1.00000000E+00   1.00000000E+00 
D    1    1.000000
   9.13000000E-01    1.00000000E+00 

11    0
S    1    1.000000
   4.56324000E+03    1.96665000E-03 
S    1    1.000000
   6.82024000E+02    1.52306000E-02 
S    1    1.000000
   1.54973000E+02    7.61269000E-02 
S    1    1.000000
   4.44553000E+01    2.60801000E-01 
S    1    1.000000
   1.30290000E+01    6.16462000E-01 
S    1    1.000000
   1.82773000E+00    2.21006000E-01 
SP   3    1.000000
   2.09642000E+01    1.14660000E-01   4.02487000E-02 
   4.80331000E+00    9.19999000E-01   2.37594000E-01 
   1.45933000E+00   -3.03068000E-03   8.15854000E-01 
SP   1    1.000000
   4.83456000E-01    1.00000000E+00   1.00000000E+00 
SP   1    1.000000
   1.45585000E-01    1.00000000E+00   1.00000000E+00 
SP   1    1.000000
   4.38000000E-02    1.00000000E+00   1.00000000E+00 
SP   1    1.000000
   1.31927711E-02    1.00000000E+00   1.00000000E+00 
D    1    1.000000
   6.26000000E-01    1.00000000E+00 

12    0
S    3    1.000000
   3.38650000E+01    2.54938000E-02 
   5.09479000E+00    1.90373000E-01 
   1.15879000E+00    8.52161000E-01 
S    1    1.000000
   3.25840000E-01    1.00000000E+00 
S    1    1.000000
   1.02741000E-01    1.00000000E+00 
S    1    1.000000
   3.60000000E-02    1.00000000E+00 
P    1    1.000000
   7.50000000E-01    1.00000000E+00 

[MO]
Sym=X
Ene=0.156497
Spin=Alpha
Occup=1
1    0.00110927056
2    0.00858756293
3    0.04283835
4    0.147077801
5    0.347441915
6    0.126694451
7    0.465269258
8    -0.00111520971
9    0.000314784712
10    -8.84373031e-16
11    0.00166957509
12    0.0010602499
13    -6.59414559e-05
14    2.35168477e-15
15    0.00148295226
16    -0.000301329142
17    0.000860983728
18    -8.58650796e-15
19    0.000909685027
20    -0.000704039325
21    0.000569224653
22    8.68394108e-14
23    -0.00015178802
24    7.57881473e-05
25    -2.96094489e-05
26    -6.32147412e-14
27    0.000363555394
28    -3.26740437e-16
29    -0.000237507538
30    8.25818372e-17
31    8.85663135e-05
32    2.89641741e-05
33    5.10564756e-05
34    3.66105848e-05
35    -0.000103173886
36    4.65727323e-05
37    1.54678703e-05
38    -2.52262488e-16
39    0.000380024399
40    0.000463454238
41    0.000241812656
42    0.000139207821
43    4.14720355e-05
44    0.000307622575
45    -1.38013244e-16
46    1.23412595e-05
47    -5.7348129e-05
48    0.00024154268
49    0.00025164463
50    5.58032343e-06
51    4.76618344e-06
52    7.1509375e-16
53    -3.57349787e-07
54    -2.73500316e-06
55    -1.38663345e-05
56    -4.67643411e-05
57    -0.000119612848
58    -8.73888943e-05
59    -0.000124966439
60    -5.30119722e-06
61    2.14440468e-05
62    2.2420792e-15
63    0.000108509557
64    1.91851994e-05
65    -8.44610863e-05
66    2.18805121e-16
67    0.000233403402
68    -0.000631123498
69    0.00039815909
70    4.74279325e-15
71    0.000674546847
72    -0.000317975101
73    0.000577535677
74    9.8858834e-14
75    0.000505309421
76    0.000175891035
77    7.59897692e-06
78    7.95042387e-14
79    -1.81055281e-05
80    5.05668801e-16
81    4.02358284e-06
82    -6.86912837e-16
83    -4.46935294e-05
84    -2.42281961e-09
85    7.42649038e-09
86    -1.50667684e-07
87    1.86770696e-07
88    -6.33072896e-06
89    -2.56888347e-05
90    1.43107485e-05
91    -4.23283559e-06
92    1.96911189e-06
93    1.51936164e-15
94    6.95303756e-05
95    2.61853043e-05
96    -2.58312563e-05
97    1.44462054e-15
98    -0.000303899482
99    -0.000156758103
100    8.68946428e-05
101    6.83442091e-15
102    -0.00102250115
103    -0.000160386144
104    0.000137017945
105    -7.73815217e-15
106    -0.00135414431
107    -0.000275955004
108    4.62399054e-05
109    -2.64371789e-14
110    -2.24905271e-06
111    -7.75301077e-16
112    7.425701e-07
113    4.69926019e-16
114    -5.48029009e-06
115    -4.63546337e-07
116    -3.53678152e-06
117    -1.80146494e-05
118    -6.03915941e-05
119    -0.000156255099
120    -0.000108139524
121    -0.000160569833
122    7.44178149e-06
123    2.65511018e-05
124    2.38578896e-16
125    8.830435e-05
126    -3.07365285e-05
127    -0.000112441203
128    3.62881616e-16
129    0.000221905332
130    -0.000198386589
131    -0.000132119545
132    -4.14287993e-15
133    -0.000130688795
134    0.000246749573
135    0.000223157931
136    9.97451902e-14
137    4.40631363e-05
138    0.000191733645
139    -7.2014155e-05
140    -3.24257576e-14
141    3.51703858e-05
142    -1.50159326e-16
143    -5.43240415e-06
144    -3.41622773e-16
145    -4.76116086e-05
146    -1.76975007e-09
147    -1.54054931e-08
148    -6.21144486e-08
149    -2.61096558e-07
150    -8.97197835e-08
151    2.05226333e-06
152    -2.39405526e-06
153    7.38988177e-07
154    2.41143548e-06
155    5.34551629e-16
156    -8.58185988e-06
157    -6.80681895e-06
158    -1.99265175e-05
159    -2.76617709e-15
160    0.000111511658
161    -1.03845982e-06
162    2.40910117e-07
163    7.1148437e-15
164    -9.73647713e-05
165    -7.39287566e-06
166    -1.50966527e-05
167    -1.91391516e-14
168    3.79912084e-05
169    9.15921103e-06
170    -4.95728399e-05
171    3.84679596e-15
172    3.93130466e-06
173    -7.84071693e-17
174    -1.25150006e-06
175    -2.78928099e-16
176    -6.4097321e-06
177    -3.74754317e-09
178    1.04598201e-08
179    -2.29064779e-07
180    3.04329449e-07
181    -9.05502755e-06
182    -3.66173212e-05
183    2.13460132e-05
184    4.49207606e-07
185    7.91635444e-06
186    2.36970181e-15
187    6.89896838e-05
188    -6.07799528e-06
189    -2.98371321e-05
190    -3.92993239e-15
191    2.81773323e-05
192    -4.633177e-05
193    2.39974342e-05
194    1.98264295e-14
195    7.74232457e-05
196    0.000172217796
197    -0.000539238999
198    -6.70043709e-14
199    0.000746245581
200    -0.000303390219
201    -0.000124419531
202    -6.71348292e-14
203    6.51028268e-06
204    -2.36502064e-16
205    -2.712073e-06
206    -3.98732766e-16
207    5.97541284e-06
208    -2.44930699e-07
209    -1.69265318e-06
210    -9.65471237e-06
211    -2.8122439e-05
212    -0.00011454776
213    -0.000268703864
214    -4.11750576e-05
215    6.79487983e-05
216    -4.07994327e-05
217    2.92657121e-15
218    0.000671562826
219    0.000731715193
220    -0.00044364503
221    -6.72015632e-15
222    -9.66576696e-05
223    -1.86125757e-05
224    8.02760968e-05
225    2.24165174e-14
226    -0.00132752994
227    -0.000457382418
228    0.000366669769
229    -6.8849132e-14
230    -0.00058854623
231    -0.000320468859
232    5.26989773e-05
233    -2.72682899e-14
234    -0.000328061626
235    5.41273163e-17
236    -0.000130081102
237    1.69061959e-16
238    0.000182840262
239    -1.3881562e-05
240    -0.000107621165
241    -0.000535874203
242    -0.001844402
243    -0.00431751843
244    -0.00150600716
245    -0.0059672864
246    -0.000148149433
247    -7.6229033e-05
248    3.01796702e-16
249    0.000146166154
250    -0.000238633439
251    -0.000104404647
252    -2.57251928e-15
253    -0.000824610247
254    0.000603294738
255    -0.000272728312
256    1.05605635e-14
257    0.00108207251
258    -1.15256744e-05
259    -0.000645726401
260    -9.78997372e-14
261    -0.000224325972
262    -0.000171477491
263    -0.00011153407
264    6.66979825e-14
265    0.000163102845
266    4.65570243e-16
267    5.21831756e-05
268    -6.5733768e-16
269    0.000148614406
270    2.08871376e-05
271    1.63086853e-05
272    -0.000363624796
273    -0.000290950141
274    -8.20151183e-05
275    -1.68662412e-05
276    -6.53746957e-16
[5D]