[Molden Format]
[Atoms] (Angs)
  C      1    6     -0.00714236     -1.70213747     -0.00000000
  H      2    1     -2.06882847     -1.44022412      0.00000000
  H      3    1     -0.12337987     -2.77567521      0.00000000
  H      4    1      0.04651892      1.98813947     -0.00000000
  C      5    6     -1.21953563      0.40211669      0.00000000
  O      6    8     -2.25921553      1.03043814      0.00000000
  C      7    6      1.28797806      0.34644937     -0.00000000
  O      8    8      2.31273661      1.00537216     -0.00000000
  N      9    7      0.03446295      0.97739857     -0.00000000
  N     10    7     -1.17287765     -0.98229824      0.00000000
  C     11    6      1.20107039     -1.10433419     -0.00000000
  H     12    1      2.11220096     -1.67699125     -0.00000000
[GTO]
1    0
S    1    1.000000
   4.56324000E+03    1.96665000E-03 
S    1    1.000000
   6.82024000E+02    1.52306000E-02 
S    1    1.000000
   1.54973000E+02    7.61269000E-02 
S    1    1.000000
   4.44553000E+01    2.60801000E-01 
S    1    1.000000
   1.30290000E+01    6.16462000E-01 
S    1    1.000000
   1.82773000E+00    2.21006000E-01 
SP   3    1.000000
   2.09642000E+01    1.14660000E-01   4.02487000E-02 
   4.80331000E+00    9.19999000E-01   2.37594000E-01 
   1.45933000E+00   -3.03068000E-03   8.15854000E-01 
SP   1    1.000000
   4.83456000E-01    1.00000000E+00   1.00000000E+00 
SP   1    1.000000
   1.45585000E-01    1.00000000E+00   1.00000000E+00 
SP   1    1.000000
   4.38000000E-02    1.00000000E+00   1.00000000E+00 
SP   1    1.000000
   1.31927711E-02    1.00000000E+00   1.00000000E+00 
D    1    1.000000
   6.26000000E-01    1.00000000E+00 

2    0
S    3    1.000000
   3.38650000E+01    2.54938000E-02 
   5.09479000E+00    1.90373000E-01 
   1.15879000E+00    8.52161000E-01 
S    1    1.000000
   3.25840000E-01    1.00000000E+00 
S    1    1.000000
   1.02741000E-01    1.00000000E+00 
S    1    1.000000
   3.60000000E-02    1.00000000E+00 
P    1    1.000000
   7.50000000E-01    1.00000000E+00 

3    0
S    3    1.000000
   3.38650000E+01    2.54938000E-02 
   5.09479000E+00    1.90373000E-01 
   1.15879000E+00    8.52161000E-01 
S    1    1.000000
   3.25840000E-01    1.00000000E+00 
S    1    1.000000
   1.02741000E-01    1.00000000E+00 
S    1    1.000000
   3.60000000E-02    1.00000000E+00 
P    1    1.000000
   7.50000000E-01    1.00000000E+00 

4    0
S    3    1.000000
   3.38650000E+01    2.54938000E-02 
   5.09479000E+00    1.90373000E-01 
   1.15879000E+00    8.52161000E-01 
S    1    1.000000
   3.25840000E-01    1.00000000E+00 
S    1    1.000000
   1.02741000E-01    1.00000000E+00 
S    1    1.000000
   3.60000000E-02    1.00000000E+00 
P    1    1.000000
   7.50000000E-01    1.00000000E+00 

5    0
S    1    1.000000
   4.56324000E+03    1.96665000E-03 
S    1    1.000000
   6.82024000E+02    1.52306000E-02 
S    1    1.000000
   1.54973000E+02    7.61269000E-02 
S    1    1.000000
   4.44553000E+01    2.60801000E-01 
S    1    1.000000
   1.30290000E+01    6.16462000E-01 
S    1    1.000000
   1.82773000E+00    2.21006000E-01 
SP   3    1.000000
   2.09642000E+01    1.14660000E-01   4.02487000E-02 
   4.80331000E+00    9.19999000E-01   2.37594000E-01 
   1.45933000E+00   -3.03068000E-03   8.15854000E-01 
SP   1    1.000000
   4.83456000E-01    1.00000000E+00   1.00000000E+00 
SP   1    1.000000
   1.45585000E-01    1.00000000E+00   1.00000000E+00 
SP   1    1.000000
   4.38000000E-02    1.00000000E+00   1.00000000E+00 
SP   1    1.000000
   1.31927711E-02    1.00000000E+00   1.00000000E+00 
D    1    1.000000
   6.26000000E-01    1.00000000E+00 

6    0
S    1    1.000000
   8.58850000E+03    1.89515000E-03 
S    1    1.000000
   1.29723000E+03    1.43859000E-02 
S    1    1.000000
   2.99296000E+02    7.07320000E-02 
S    1    1.000000
   8.73771000E+01    2.40001000E-01 
S    1    1.000000
   2.56789000E+01    5.94797000E-01 
S    1    1.000000
   3.74004000E+00    2.80802000E-01 
SP   3    1.000000
   4.21175000E+01    1.13889000E-01   3.65114000E-02 
   9.62837000E+00    9.20811000E-01   2.37153000E-01 
   2.85332000E+00   -3.27447000E-03   8.19702000E-01 
SP   1    1.000000
   9.05661000E-01    1.00000000E+00   1.00000000E+00 
SP   1    1.000000
   2.55611000E-01    1.00000000E+00   1.00000000E+00 
SP   1    1.000000
   8.45000000E-02    1.00000000E+00   1.00000000E+00 
SP   1    1.000000
   2.54518072E-02    1.00000000E+00   1.00000000E+00 
D    1    1.000000
   1.29200000E+00    1.00000000E+00 

7    0
S    1    1.000000
   4.56324000E+03    1.96665000E-03 
S    1    1.000000
   6.82024000E+02    1.52306000E-02 
S    1    1.000000
   1.54973000E+02    7.61269000E-02 
S    1    1.000000
   4.44553000E+01    2.60801000E-01 
S    1    1.000000
   1.30290000E+01    6.16462000E-01 
S    1    1.000000
   1.82773000E+00    2.21006000E-01 
SP   3    1.000000
   2.09642000E+01    1.14660000E-01   4.02487000E-02 
   4.80331000E+00    9.19999000E-01   2.37594000E-01 
   1.45933000E+00   -3.03068000E-03   8.15854000E-01 
SP   1    1.000000
   4.83456000E-01    1.00000000E+00   1.00000000E+00 
SP   1    1.000000
   1.45585000E-01    1.00000000E+00   1.00000000E+00 
SP   1    1.000000
   4.38000000E-02    1.00000000E+00   1.00000000E+00 
SP   1    1.000000
   1.31927711E-02    1.00000000E+00   1.00000000E+00 
D    1    1.000000
   6.26000000E-01    1.00000000E+00 

8    0
S    1    1.000000
   8.58850000E+03    1.89515000E-03 
S    1    1.000000
   1.29723000E+03    1.43859000E-02 
S    1    1.000000
   2.99296000E+02    7.07320000E-02 
S    1    1.000000
   8.73771000E+01    2.40001000E-01 
S    1    1.000000
   2.56789000E+01    5.94797000E-01 
S    1    1.000000
   3.74004000E+00    2.80802000E-01 
SP   3    1.000000
   4.21175000E+01    1.13889000E-01   3.65114000E-02 
   9.62837000E+00    9.20811000E-01   2.37153000E-01 
   2.85332000E+00   -3.27447000E-03   8.19702000E-01 
SP   1    1.000000
   9.05661000E-01    1.00000000E+00   1.00000000E+00 
SP   1    1.000000
   2.55611000E-01    1.00000000E+00   1.00000000E+00 
SP   1    1.000000
   8.45000000E-02    1.00000000E+00   1.00000000E+00 
SP   1    1.000000
   2.54518072E-02    1.00000000E+00   1.00000000E+00 
D    1    1.000000
   1.29200000E+00    1.00000000E+00 

9    0
S    1    1.000000
   6.29348000E+03    1.96979000E-03 
S    1    1.000000
   9.49044000E+02    1.49613000E-02 
S    1    1.000000
   2.18776000E+02    7.35006000E-02 
S    1    1.000000
   6.36916000E+01    2.48937000E-01 
S    1    1.000000
   1.88282000E+01    6.02460000E-01 
S    1    1.000000
   2.72023000E+00    2.56202000E-01 
SP   3    1.000000
   3.06331000E+01    1.11906000E-01   3.83119000E-02 
   7.02614000E+00    9.21666000E-01   2.37403000E-01 
   2.11205000E+00   -2.56919000E-03   8.17592000E-01 
SP   1    1.000000
   6.84009000E-01    1.00000000E+00   1.00000000E+00 
SP   1    1.000000
   2.00878000E-01    1.00000000E+00   1.00000000E+00 
SP   1    1.000000
   6.39000000E-02    1.00000000E+00   1.00000000E+00 
SP   1    1.000000
   1.92469880E-02    1.00000000E+00   1.00000000E+00 
D    1    1.000000
   9.13000000E-01    1.00000000E+00 

10    0
S    1    1.000000
   6.29348000E+03    1.96979000E-03 
S    1    1.000000
   9.49044000E+02    1.49613000E-02 
S    1    1.000000
   2.18776000E+02    7.35006000E-02 
S    1    1.000000
   6.36916000E+01    2.48937000E-01 
S    1    1.000000
   1.88282000E+01    6.02460000E-01 
S    1    1.000000
   2.72023000E+00    2.56202000E-01 
SP   3    1.000000
   3.06331000E+01    1.11906000E-01   3.83119000E-02 
   7.02614000E+00    9.21666000E-01   2.37403000E-01 
   2.11205000E+00   -2.56919000E-03   8.17592000E-01 
SP   1    1.000000
   6.84009000E-01    1.00000000E+00   1.00000000E+00 
SP   1    1.000000
   2.00878000E-01    1.00000000E+00   1.00000000E+00 
SP   1    1.000000
   6.39000000E-02    1.00000000E+00   1.00000000E+00 
SP   1    1.000000
   1.92469880E-02    1.00000000E+00   1.00000000E+00 
D    1    1.000000
   9.13000000E-01    1.00000000E+00 

11    0
S    1    1.000000
   4.56324000E+03    1.96665000E-03 
S    1    1.000000
   6.82024000E+02    1.52306000E-02 
S    1    1.000000
   1.54973000E+02    7.61269000E-02 
S    1    1.000000
   4.44553000E+01    2.60801000E-01 
S    1    1.000000
   1.30290000E+01    6.16462000E-01 
S    1    1.000000
   1.82773000E+00    2.21006000E-01 
SP   3    1.000000
   2.09642000E+01    1.14660000E-01   4.02487000E-02 
   4.80331000E+00    9.19999000E-01   2.37594000E-01 
   1.45933000E+00   -3.03068000E-03   8.15854000E-01 
SP   1    1.000000
   4.83456000E-01    1.00000000E+00   1.00000000E+00 
SP   1    1.000000
   1.45585000E-01    1.00000000E+00   1.00000000E+00 
SP   1    1.000000
   4.38000000E-02    1.00000000E+00   1.00000000E+00 
SP   1    1.000000
   1.31927711E-02    1.00000000E+00   1.00000000E+00 
D    1    1.000000
   6.26000000E-01    1.00000000E+00 

12    0
S    3    1.000000
   3.38650000E+01    2.54938000E-02 
   5.09479000E+00    1.90373000E-01 
   1.15879000E+00    8.52161000E-01 
S    1    1.000000
   3.25840000E-01    1.00000000E+00 
S    1    1.000000
   1.02741000E-01    1.00000000E+00 
S    1    1.000000
   3.60000000E-02    1.00000000E+00 
P    1    1.000000
   7.50000000E-01    1.00000000E+00 

[MO]
Sym=X
Ene=0.013343
Spin=Alpha
Occup=1
1    5.22022502e-06
2    4.04230249e-05
3    0.000201579573
4    0.000692327952
5    0.00163201953
6    0.000574636802
7    0.00220088343
8    1.02956035e-05
9    -6.18297234e-06
10    8.57523509e-16
11    5.88174218e-05
12    -7.41933811e-05
13    2.40931466e-05
14    3.22460671e-15
15    -0.000316228194
16    8.70580921e-05
17    -0.000140291961
18    1.96242475e-15
19    0.00325222239
20    0.00048984124
21    0.00128596993
22    2.11772863e-14
23    0.000310167895
24    -0.000212912058
25    8.05701465e-05
26    6.0496213e-14
27    -5.45376262e-05
28    1.97847899e-16
29    1.50179693e-05
30    1.60403622e-15
31    4.77916009e-08
32    3.28265459e-05
33    1.28738048e-05
34    2.4772495e-05
35    0.000103790326
36    3.85183596e-05
37    2.19651824e-05
38    -9.07856958e-16
39    1.33469486e-05
40    6.52955913e-06
41    -2.15367708e-05
42    0.000866988515
43    -8.1882172e-06
44    1.18875954e-05
45    2.02608719e-16
46    3.0489696e-05
47    4.63515821e-05
48    -0.000105495125
49    -4.50712909e-05
50    -5.99104151e-06
51    -4.74257664e-05
52    -3.67110347e-16
53    0.00110951719
54    0.0085892985
55    0.0428486185
56    0.14710763
57    0.347549086
58    0.126412354
59    0.465460476
60    0.000643714042
61    -0.000449323247
62    -3.36566239e-15
63    0.00162761177
64    -0.00073654078
65    0.000482242083
66    -9.95006705e-15
67    0.00142985502
68    0.000375387585
69    -0.000206160502
70    -1.37325457e-16
71    -0.000415669846
72    -0.000717580043
73    0.000478038556
74    -1.86504521e-14
75    -0.000726885948
76    -1.71570669e-05
77    0.000107476584
78    -2.48106174e-14
79    -0.000277961022
80    -1.34556482e-15
81    -0.0002419729
82    2.05922294e-15
83    0.000157681383
84    -3.3712251e-07
85    -2.46929861e-06
86    -1.29820531e-05
87    -4.1391703e-05
88    -0.000124609975
89    -0.000174552643
90    -0.000181815078
91    0.000211816172
92    -0.000128272521
93    -3.70863224e-15
94    0.000595440315
95    0.000535121351
96    -0.000320838874
97    -5.96985395e-15
98    -0.000256871657
99    -0.000239979352
100    0.000137685646
101    -1.00183817e-14
102    0.000149469248
103    0.000285649148
104    -0.00015247353
105    -6.01355613e-15
106    -0.000899679128
107    -0.000146337652
108    0.000108399056
109    2.36987325e-14
110    -0.000239592762
111    8.35792475e-16
112    -0.000116373006
113    -6.97947698e-16
114    0.000126405981
115    -9.38625172e-06
116    -7.26450567e-05
117    -0.000362525299
118    -0.00124411809
119    -0.00294461264
120    -0.00109610562
121    -0.00392256169
122    2.40056789e-05
123    -6.71822641e-06
124    3.21305674e-15
125    3.1972563e-05
126    -5.90112069e-05
127    1.03906418e-05
128    7.21677563e-15
129    4.6002109e-05
130    0.000390599355
131    0.000126936322
132    5.53339675e-15
133    0.003355729
134    -0.000432898677
135    -0.000868141822
136    5.47239102e-14
137    0.000590484208
138    -0.000127527226
139    -0.000125853987
140    2.40776927e-14
141    -1.23002972e-05
142    -6.3154288e-16
143    6.56766651e-06
144    1.12999425e-15
145    3.86669224e-05
146    3.78621677e-09
147    4.15378061e-08
148    1.1272458e-07
149    7.28364081e-07
150    -1.53180788e-06
151    -1.12841521e-05
152    9.74419229e-06
153    3.16587789e-06
154    2.02018446e-06
155    2.39103895e-15
156    2.94832138e-05
157    -1.72768802e-05
158    1.30246285e-06
159    3.30054319e-15
160    -0.000132685227
161    6.15314406e-05
162    5.26927038e-05
163    9.86228035e-15
164    -0.000641064722
165    0.000219510473
166    0.000112395569
167    7.09458405e-16
168    -5.4998542e-05
169    2.68898988e-05
170    0.000112099251
171    -3.57251059e-15
172    -4.94628449e-06
173    -4.99728686e-16
174    1.4854707e-06
175    -5.41809615e-16
176    4.44149444e-06
177    -2.13235776e-07
178    -1.49080809e-06
179    -8.37122621e-06
180    -2.48230922e-05
181    -9.58237608e-05
182    -0.000211699436
183    -4.95807853e-05
184    -7.39463054e-05
185    -4.3613913e-05
186    3.4613052e-16
187    0.000543866028
188    -0.000632083415
189    -0.000290224564
190    -2.15568695e-15
191    -7.70267146e-05
192    0.000192612023
193    -1.48293677e-05
194    4.41821494e-15
195    -0.000365791379
196    0.000490608099
197    0.000259898251
198    -1.45937614e-14
199    1.31917662e-05
200    -0.000106978925
201    2.51258034e-05
202    1.54129876e-14
203    0.000231155252
204    1.00579762e-16
205    -9.75968681e-05
206    1.63932563e-15
207    0.000205628506
208    -2.53805851e-07
209    -1.79249747e-06
210    -9.90127956e-06
211    -2.98140122e-05
212    -0.000109690271
213    -0.000222789468
214    -6.27260207e-05
215    7.51573497e-06
216    8.10236274e-05
217    -1.639155e-15
218    0.000551183644
219    -3.07795442e-05
220    0.000701744746
221    -1.36422214e-15
222    -7.09238988e-05
223    6.07273128e-05
224    -0.000169229988
225    -7.67383929e-15
226    -0.000446149415
227    9.26911125e-05
228    -0.000233009502
229    5.15507254e-15
230    8.01314175e-05
231    -0.000142788252
232    0.00030028843
233    -2.78704872e-14
234    -2.86680089e-05
235    -1.07883916e-15
236    -0.000101786565
237    7.22360016e-16
238    -0.000315924387
239    6.2146972e-07
240    4.83774816e-06
241    2.39410179e-05
242    8.29392852e-05
243    0.000188839649
244    3.94068022e-05
245    0.000277905211
246    7.66825854e-06
247    -3.84747054e-06
248    3.84423282e-15
249    7.37445382e-05
250    -7.00203366e-05
251    1.37973482e-05
252    5.74598292e-15
253    0.000125378274
254    -0.000114210935
255    5.88447235e-05
256    1.29588436e-14
257    -0.0054186837
258    0.000900962936
259    -0.000577182859
260    -2.14387479e-14
261    -8.42590976e-05
262    7.61404819e-05
263    -4.20698885e-05
264    -3.08909189e-14
265    2.49585599e-05
266    6.23732838e-16
267    2.08142749e-06
268    2.11402439e-16
269    5.53750254e-06
270    5.09263521e-06
271    5.19740545e-05
272    1.01558001e-05
273    -0.000109818204
274    -1.4076593e-05
275    6.71074573e-06
276    2.20265113e-15
[5D]