[Molden Format]
[Atoms] (Angs)
  C      1    6     -0.00714236     -1.70213747     -0.00000000
  H      2    1     -2.06882847     -1.44022412      0.00000000
  H      3    1     -0.12337987     -2.77567521      0.00000000
  H      4    1      0.04651892      1.98813947     -0.00000000
  C      5    6     -1.21953563      0.40211669      0.00000000
  O      6    8     -2.25921553      1.03043814      0.00000000
  C      7    6      1.28797806      0.34644937     -0.00000000
  O      8    8      2.31273661      1.00537216     -0.00000000
  N      9    7      0.03446295      0.97739857     -0.00000000
  N     10    7     -1.17287765     -0.98229824      0.00000000
  C     11    6      1.20107039     -1.10433419     -0.00000000
  H     12    1      2.11220096     -1.67699125     -0.00000000
[GTO]
1    0
S    1    1.000000
   4.56324000E+03    1.96665000E-03 
S    1    1.000000
   6.82024000E+02    1.52306000E-02 
S    1    1.000000
   1.54973000E+02    7.61269000E-02 
S    1    1.000000
   4.44553000E+01    2.60801000E-01 
S    1    1.000000
   1.30290000E+01    6.16462000E-01 
S    1    1.000000
   1.82773000E+00    2.21006000E-01 
SP   3    1.000000
   2.09642000E+01    1.14660000E-01   4.02487000E-02 
   4.80331000E+00    9.19999000E-01   2.37594000E-01 
   1.45933000E+00   -3.03068000E-03   8.15854000E-01 
SP   1    1.000000
   4.83456000E-01    1.00000000E+00   1.00000000E+00 
SP   1    1.000000
   1.45585000E-01    1.00000000E+00   1.00000000E+00 
SP   1    1.000000
   4.38000000E-02    1.00000000E+00   1.00000000E+00 
SP   1    1.000000
   1.31927711E-02    1.00000000E+00   1.00000000E+00 
D    1    1.000000
   6.26000000E-01    1.00000000E+00 

2    0
S    3    1.000000
   3.38650000E+01    2.54938000E-02 
   5.09479000E+00    1.90373000E-01 
   1.15879000E+00    8.52161000E-01 
S    1    1.000000
   3.25840000E-01    1.00000000E+00 
S    1    1.000000
   1.02741000E-01    1.00000000E+00 
S    1    1.000000
   3.60000000E-02    1.00000000E+00 
P    1    1.000000
   7.50000000E-01    1.00000000E+00 

3    0
S    3    1.000000
   3.38650000E+01    2.54938000E-02 
   5.09479000E+00    1.90373000E-01 
   1.15879000E+00    8.52161000E-01 
S    1    1.000000
   3.25840000E-01    1.00000000E+00 
S    1    1.000000
   1.02741000E-01    1.00000000E+00 
S    1    1.000000
   3.60000000E-02    1.00000000E+00 
P    1    1.000000
   7.50000000E-01    1.00000000E+00 

4    0
S    3    1.000000
   3.38650000E+01    2.54938000E-02 
   5.09479000E+00    1.90373000E-01 
   1.15879000E+00    8.52161000E-01 
S    1    1.000000
   3.25840000E-01    1.00000000E+00 
S    1    1.000000
   1.02741000E-01    1.00000000E+00 
S    1    1.000000
   3.60000000E-02    1.00000000E+00 
P    1    1.000000
   7.50000000E-01    1.00000000E+00 

5    0
S    1    1.000000
   4.56324000E+03    1.96665000E-03 
S    1    1.000000
   6.82024000E+02    1.52306000E-02 
S    1    1.000000
   1.54973000E+02    7.61269000E-02 
S    1    1.000000
   4.44553000E+01    2.60801000E-01 
S    1    1.000000
   1.30290000E+01    6.16462000E-01 
S    1    1.000000
   1.82773000E+00    2.21006000E-01 
SP   3    1.000000
   2.09642000E+01    1.14660000E-01   4.02487000E-02 
   4.80331000E+00    9.19999000E-01   2.37594000E-01 
   1.45933000E+00   -3.03068000E-03   8.15854000E-01 
SP   1    1.000000
   4.83456000E-01    1.00000000E+00   1.00000000E+00 
SP   1    1.000000
   1.45585000E-01    1.00000000E+00   1.00000000E+00 
SP   1    1.000000
   4.38000000E-02    1.00000000E+00   1.00000000E+00 
SP   1    1.000000
   1.31927711E-02    1.00000000E+00   1.00000000E+00 
D    1    1.000000
   6.26000000E-01    1.00000000E+00 

6    0
S    1    1.000000
   8.58850000E+03    1.89515000E-03 
S    1    1.000000
   1.29723000E+03    1.43859000E-02 
S    1    1.000000
   2.99296000E+02    7.07320000E-02 
S    1    1.000000
   8.73771000E+01    2.40001000E-01 
S    1    1.000000
   2.56789000E+01    5.94797000E-01 
S    1    1.000000
   3.74004000E+00    2.80802000E-01 
SP   3    1.000000
   4.21175000E+01    1.13889000E-01   3.65114000E-02 
   9.62837000E+00    9.20811000E-01   2.37153000E-01 
   2.85332000E+00   -3.27447000E-03   8.19702000E-01 
SP   1    1.000000
   9.05661000E-01    1.00000000E+00   1.00000000E+00 
SP   1    1.000000
   2.55611000E-01    1.00000000E+00   1.00000000E+00 
SP   1    1.000000
   8.45000000E-02    1.00000000E+00   1.00000000E+00 
SP   1    1.000000
   2.54518072E-02    1.00000000E+00   1.00000000E+00 
D    1    1.000000
   1.29200000E+00    1.00000000E+00 

7    0
S    1    1.000000
   4.56324000E+03    1.96665000E-03 
S    1    1.000000
   6.82024000E+02    1.52306000E-02 
S    1    1.000000
   1.54973000E+02    7.61269000E-02 
S    1    1.000000
   4.44553000E+01    2.60801000E-01 
S    1    1.000000
   1.30290000E+01    6.16462000E-01 
S    1    1.000000
   1.82773000E+00    2.21006000E-01 
SP   3    1.000000
   2.09642000E+01    1.14660000E-01   4.02487000E-02 
   4.80331000E+00    9.19999000E-01   2.37594000E-01 
   1.45933000E+00   -3.03068000E-03   8.15854000E-01 
SP   1    1.000000
   4.83456000E-01    1.00000000E+00   1.00000000E+00 
SP   1    1.000000
   1.45585000E-01    1.00000000E+00   1.00000000E+00 
SP   1    1.000000
   4.38000000E-02    1.00000000E+00   1.00000000E+00 
SP   1    1.000000
   1.31927711E-02    1.00000000E+00   1.00000000E+00 
D    1    1.000000
   6.26000000E-01    1.00000000E+00 

8    0
S    1    1.000000
   8.58850000E+03    1.89515000E-03 
S    1    1.000000
   1.29723000E+03    1.43859000E-02 
S    1    1.000000
   2.99296000E+02    7.07320000E-02 
S    1    1.000000
   8.73771000E+01    2.40001000E-01 
S    1    1.000000
   2.56789000E+01    5.94797000E-01 
S    1    1.000000
   3.74004000E+00    2.80802000E-01 
SP   3    1.000000
   4.21175000E+01    1.13889000E-01   3.65114000E-02 
   9.62837000E+00    9.20811000E-01   2.37153000E-01 
   2.85332000E+00   -3.27447000E-03   8.19702000E-01 
SP   1    1.000000
   9.05661000E-01    1.00000000E+00   1.00000000E+00 
SP   1    1.000000
   2.55611000E-01    1.00000000E+00   1.00000000E+00 
SP   1    1.000000
   8.45000000E-02    1.00000000E+00   1.00000000E+00 
SP   1    1.000000
   2.54518072E-02    1.00000000E+00   1.00000000E+00 
D    1    1.000000
   1.29200000E+00    1.00000000E+00 

9    0
S    1    1.000000
   6.29348000E+03    1.96979000E-03 
S    1    1.000000
   9.49044000E+02    1.49613000E-02 
S    1    1.000000
   2.18776000E+02    7.35006000E-02 
S    1    1.000000
   6.36916000E+01    2.48937000E-01 
S    1    1.000000
   1.88282000E+01    6.02460000E-01 
S    1    1.000000
   2.72023000E+00    2.56202000E-01 
SP   3    1.000000
   3.06331000E+01    1.11906000E-01   3.83119000E-02 
   7.02614000E+00    9.21666000E-01   2.37403000E-01 
   2.11205000E+00   -2.56919000E-03   8.17592000E-01 
SP   1    1.000000
   6.84009000E-01    1.00000000E+00   1.00000000E+00 
SP   1    1.000000
   2.00878000E-01    1.00000000E+00   1.00000000E+00 
SP   1    1.000000
   6.39000000E-02    1.00000000E+00   1.00000000E+00 
SP   1    1.000000
   1.92469880E-02    1.00000000E+00   1.00000000E+00 
D    1    1.000000
   9.13000000E-01    1.00000000E+00 

10    0
S    1    1.000000
   6.29348000E+03    1.96979000E-03 
S    1    1.000000
   9.49044000E+02    1.49613000E-02 
S    1    1.000000
   2.18776000E+02    7.35006000E-02 
S    1    1.000000
   6.36916000E+01    2.48937000E-01 
S    1    1.000000
   1.88282000E+01    6.02460000E-01 
S    1    1.000000
   2.72023000E+00    2.56202000E-01 
SP   3    1.000000
   3.06331000E+01    1.11906000E-01   3.83119000E-02 
   7.02614000E+00    9.21666000E-01   2.37403000E-01 
   2.11205000E+00   -2.56919000E-03   8.17592000E-01 
SP   1    1.000000
   6.84009000E-01    1.00000000E+00   1.00000000E+00 
SP   1    1.000000
   2.00878000E-01    1.00000000E+00   1.00000000E+00 
SP   1    1.000000
   6.39000000E-02    1.00000000E+00   1.00000000E+00 
SP   1    1.000000
   1.92469880E-02    1.00000000E+00   1.00000000E+00 
D    1    1.000000
   9.13000000E-01    1.00000000E+00 

11    0
S    1    1.000000
   4.56324000E+03    1.96665000E-03 
S    1    1.000000
   6.82024000E+02    1.52306000E-02 
S    1    1.000000
   1.54973000E+02    7.61269000E-02 
S    1    1.000000
   4.44553000E+01    2.60801000E-01 
S    1    1.000000
   1.30290000E+01    6.16462000E-01 
S    1    1.000000
   1.82773000E+00    2.21006000E-01 
SP   3    1.000000
   2.09642000E+01    1.14660000E-01   4.02487000E-02 
   4.80331000E+00    9.19999000E-01   2.37594000E-01 
   1.45933000E+00   -3.03068000E-03   8.15854000E-01 
SP   1    1.000000
   4.83456000E-01    1.00000000E+00   1.00000000E+00 
SP   1    1.000000
   1.45585000E-01    1.00000000E+00   1.00000000E+00 
SP   1    1.000000
   4.38000000E-02    1.00000000E+00   1.00000000E+00 
SP   1    1.000000
   1.31927711E-02    1.00000000E+00   1.00000000E+00 
D    1    1.000000
   6.26000000E-01    1.00000000E+00 

12    0
S    3    1.000000
   3.38650000E+01    2.54938000E-02 
   5.09479000E+00    1.90373000E-01 
   1.15879000E+00    8.52161000E-01 
S    1    1.000000
   3.25840000E-01    1.00000000E+00 
S    1    1.000000
   1.02741000E-01    1.00000000E+00 
S    1    1.000000
   3.60000000E-02    1.00000000E+00 
P    1    1.000000
   7.50000000E-01    1.00000000E+00 

[MO]
Sym=X
Ene=0.127741
Spin=Alpha
Occup=1
1    1.11647262e-05
2    8.63538198e-05
3    0.000431190985
4    0.00147795609
5    0.00350991911
6    0.00124030759
7    0.00458216283
8    0.000124389817
9    7.88347559e-05
10    4.1664554e-16
11    0.00052154195
12    0.000570648191
13    0.000297501477
14    -1.38853417e-15
15    -0.000980166696
16    -0.000291563067
17    -0.000606089504
18    -9.08645138e-16
19    -0.00254974977
20    -0.000141673845
21    -0.00136066011
22    6.0388778e-14
23    -0.00022299649
24    2.89169944e-06
25    -0.000257894948
26    -7.05681709e-14
27    0.000299938698
28    -3.08150851e-16
29    -2.53383524e-05
30    -7.83760639e-16
31    0.000210515015
32    7.28081935e-06
33    5.79935076e-05
34    9.63071298e-05
35    0.000310133426
36    1.57830949e-05
37    -4.53822592e-06
38    1.43777696e-15
39    3.28550718e-05
40    7.08639976e-05
41    -0.000407473583
42    -0.000688496917
43    5.88570527e-05
44    7.14361916e-05
45    1.30845711e-17
46    1.28259162e-05
47    3.8656949e-05
48    2.83262717e-05
49    0.000259799977
50    5.96664726e-06
51    -4.36903036e-06
52    -1.09881476e-15
53    5.18007866e-08
54    4.26487442e-07
55    1.94377354e-06
56    7.38810225e-06
57    1.07273597e-05
58    -2.23685028e-05
59    3.80865511e-05
60    -3.93843316e-06
61    4.56963129e-06
62    2.07139271e-15
63    7.3832304e-05
64    1.00774342e-05
65    -1.64350559e-05
66    1.77463561e-16
67    -0.000602299578
68    -0.00049369963
69    0.000269289868
70    5.57295385e-15
71    9.34840957e-05
72    -0.000210587294
73    -7.79149388e-05
74    8.3804499e-14
75    9.46757474e-05
76    -6.76689257e-05
77    4.61723159e-05
78    6.50230384e-14
79    3.26707419e-06
80    -4.96735884e-16
81    9.56224605e-06
82    -1.22624585e-15
83    5.49380774e-07
84    -1.69095895e-10
85    7.22556635e-09
86    -2.58990964e-08
87    1.41089868e-07
88    -1.9033892e-06
89    -8.50101215e-06
90    5.16513855e-06
91    -2.67082866e-06
92    7.16257333e-07
93    8.50171878e-16
94    2.23281697e-05
95    1.36135924e-05
96    -5.51040801e-06
97    2.63460893e-15
98    -0.000103273065
99    -4.95314153e-05
100    2.66730916e-05
101    3.70484749e-15
102    -0.000566688571
103    -0.000134203765
104    8.89861203e-05
105    -3.86020589e-15
106    -0.000138814709
107    4.92791027e-05
108    0.000108138567
109    -2.80012429e-14
110    -4.59711448e-07
111    -2.44359763e-16
112    1.19217632e-06
113    4.73449631e-16
114    1.06545584e-06
115    -7.4399838e-06
116    -5.75692101e-05
117    -0.000287489315
118    -0.00098649422
119    -0.00234298938
120    -0.000980482414
121    -0.00312694763
122    -1.67864279e-06
123    -8.23385496e-05
124    -4.26183291e-15
125    0.000546000717
126    -4.13239847e-05
127    -0.000636026727
128    -3.8280002e-15
129    -0.000616988948
130    0.000518970997
131    0.000914205306
132    -1.41341496e-14
133    -0.00186246826
134    0.000790703584
135    0.00105299014
136    7.3414592e-14
137    -0.00030790486
138    -6.505418e-05
139    1.24562311e-07
140    -4.51908166e-14
141    5.72026395e-05
142    -3.21648789e-16
143    -7.11423621e-05
144    -3.99336838e-16
145    -0.000353693665
146    1.20713256e-08
147    1.27629128e-07
148    3.73267779e-07
149    2.22299759e-06
150    -4.13655396e-06
151    -3.38090105e-05
152    3.03599028e-05
153    8.89837567e-06
154    2.44074166e-05
155    -2.01477947e-15
156    6.96562123e-05
157    -4.17896999e-05
158    -4.10960993e-05
159    -5.76956735e-15
160    -0.00019380902
161    0.000125129509
162    1.20329427e-06
163    -2.9697947e-15
164    -0.000839268331
165    0.000119172295
166    4.90032964e-05
167    -1.63444206e-14
168    -0.00181429549
169    0.00036060925
170    0.000102626124
171    -2.95122029e-15
172    2.67957957e-05
173    6.58828418e-16
174    -9.32622501e-07
175    6.68670212e-16
176    -2.57663383e-05
177    1.99609204e-08
178    1.95912574e-07
179    6.4941801e-07
180    3.40800035e-06
181    -3.05644191e-06
182    -3.9822521e-05
183    3.75529413e-05
184    -2.42434823e-05
185    1.45065242e-05
186    1.18135348e-15
187    4.81004888e-05
188    8.42231862e-05
189    -3.68197491e-05
190    -7.10473119e-15
191    0.000289799713
192    -0.000195920234
193    -0.0002200569
194    1.56782372e-14
195    0.000665877463
196    -0.000247488608
197    -0.000309563559
198    -6.34062609e-14
199    0.000736880982
200    0.000583594308
201    -0.000197630771
202    -4.46855508e-14
203    -3.32222231e-05
204    2.58455739e-16
205    -3.96504937e-06
206    -7.84178381e-16
207    1.53945565e-05
208    -6.26663933e-09
209    2.86710771e-09
210    -3.47160504e-07
211    2.13574683e-07
212    -1.24037134e-05
213    -4.93163216e-05
214    2.89148514e-05
215    -2.60104868e-05
216    8.13878755e-06
217    3.2570657e-15
218    6.53582834e-05
219    0.000103325101
220    -4.76389892e-05
221    -2.62944711e-15
222    0.000299913776
223    0.000155540292
224    0.000190207589
225    1.64693174e-14
226    0.000969089564
227    0.000412367026
228    0.000269829558
229    -5.45154609e-14
230    0.000556055559
231    4.22639648e-05
232    0.000224539892
233    -1.28983726e-14
234    -3.01379638e-05
235    2.65632262e-17
236    -1.30964671e-05
237    -2.34226929e-16
238    4.23052329e-05
239    0.00110905696
240    0.00858602873
241    0.042829677
242    0.147055106
243    0.347374318
244    0.127044829
245    0.464996348
246    -0.000183668111
247    0.000230577815
248    -6.66012013e-16
249    0.00182438447
250    -4.42231134e-05
251    -0.000151971256
252    -6.21427059e-15
253    0.00185254864
254    -0.00078876053
255    0.000604416551
256    5.15257901e-15
257    0.00461129719
258    -0.00101466714
259    0.000999414042
260    -8.16306149e-14
261    0.00025915551
262    9.34941921e-05
263    0.000220103517
264    7.99988053e-14
265    6.88100157e-05
266    -6.1360252e-16
267    -9.46634338e-05
268    -2.57069174e-16
269    8.72647282e-05
270    0.000378599167
271    0.000450432486
272    0.00028164826
273    0.000467457564
274    -0.00026726796
275    0.000152818019
276    -1.03790194e-15
[5D]