[Molden Format]
[Atoms] (Angs)
  C      1    6     -0.00714236     -1.70213747     -0.00000000
  H      2    1     -2.06882847     -1.44022412      0.00000000
  H      3    1     -0.12337987     -2.77567521      0.00000000
  H      4    1      0.04651892      1.98813947     -0.00000000
  C      5    6     -1.21953563      0.40211669      0.00000000
  O      6    8     -2.25921553      1.03043814      0.00000000
  C      7    6      1.28797806      0.34644937     -0.00000000
  O      8    8      2.31273661      1.00537216     -0.00000000
  N      9    7      0.03446295      0.97739857     -0.00000000
  N     10    7     -1.17287765     -0.98229824      0.00000000
  C     11    6      1.20107039     -1.10433419     -0.00000000
  H     12    1      2.11220096     -1.67699125     -0.00000000
[GTO]
1    0
S    1    1.000000
   4.56324000E+03    1.96665000E-03 
S    1    1.000000
   6.82024000E+02    1.52306000E-02 
S    1    1.000000
   1.54973000E+02    7.61269000E-02 
S    1    1.000000
   4.44553000E+01    2.60801000E-01 
S    1    1.000000
   1.30290000E+01    6.16462000E-01 
S    1    1.000000
   1.82773000E+00    2.21006000E-01 
SP   3    1.000000
   2.09642000E+01    1.14660000E-01   4.02487000E-02 
   4.80331000E+00    9.19999000E-01   2.37594000E-01 
   1.45933000E+00   -3.03068000E-03   8.15854000E-01 
SP   1    1.000000
   4.83456000E-01    1.00000000E+00   1.00000000E+00 
SP   1    1.000000
   1.45585000E-01    1.00000000E+00   1.00000000E+00 
SP   1    1.000000
   4.38000000E-02    1.00000000E+00   1.00000000E+00 
SP   1    1.000000
   1.31927711E-02    1.00000000E+00   1.00000000E+00 
D    1    1.000000
   6.26000000E-01    1.00000000E+00 

2    0
S    3    1.000000
   3.38650000E+01    2.54938000E-02 
   5.09479000E+00    1.90373000E-01 
   1.15879000E+00    8.52161000E-01 
S    1    1.000000
   3.25840000E-01    1.00000000E+00 
S    1    1.000000
   1.02741000E-01    1.00000000E+00 
S    1    1.000000
   3.60000000E-02    1.00000000E+00 
P    1    1.000000
   7.50000000E-01    1.00000000E+00 

3    0
S    3    1.000000
   3.38650000E+01    2.54938000E-02 
   5.09479000E+00    1.90373000E-01 
   1.15879000E+00    8.52161000E-01 
S    1    1.000000
   3.25840000E-01    1.00000000E+00 
S    1    1.000000
   1.02741000E-01    1.00000000E+00 
S    1    1.000000
   3.60000000E-02    1.00000000E+00 
P    1    1.000000
   7.50000000E-01    1.00000000E+00 

4    0
S    3    1.000000
   3.38650000E+01    2.54938000E-02 
   5.09479000E+00    1.90373000E-01 
   1.15879000E+00    8.52161000E-01 
S    1    1.000000
   3.25840000E-01    1.00000000E+00 
S    1    1.000000
   1.02741000E-01    1.00000000E+00 
S    1    1.000000
   3.60000000E-02    1.00000000E+00 
P    1    1.000000
   7.50000000E-01    1.00000000E+00 

5    0
S    1    1.000000
   4.56324000E+03    1.96665000E-03 
S    1    1.000000
   6.82024000E+02    1.52306000E-02 
S    1    1.000000
   1.54973000E+02    7.61269000E-02 
S    1    1.000000
   4.44553000E+01    2.60801000E-01 
S    1    1.000000
   1.30290000E+01    6.16462000E-01 
S    1    1.000000
   1.82773000E+00    2.21006000E-01 
SP   3    1.000000
   2.09642000E+01    1.14660000E-01   4.02487000E-02 
   4.80331000E+00    9.19999000E-01   2.37594000E-01 
   1.45933000E+00   -3.03068000E-03   8.15854000E-01 
SP   1    1.000000
   4.83456000E-01    1.00000000E+00   1.00000000E+00 
SP   1    1.000000
   1.45585000E-01    1.00000000E+00   1.00000000E+00 
SP   1    1.000000
   4.38000000E-02    1.00000000E+00   1.00000000E+00 
SP   1    1.000000
   1.31927711E-02    1.00000000E+00   1.00000000E+00 
D    1    1.000000
   6.26000000E-01    1.00000000E+00 

6    0
S    1    1.000000
   8.58850000E+03    1.89515000E-03 
S    1    1.000000
   1.29723000E+03    1.43859000E-02 
S    1    1.000000
   2.99296000E+02    7.07320000E-02 
S    1    1.000000
   8.73771000E+01    2.40001000E-01 
S    1    1.000000
   2.56789000E+01    5.94797000E-01 
S    1    1.000000
   3.74004000E+00    2.80802000E-01 
SP   3    1.000000
   4.21175000E+01    1.13889000E-01   3.65114000E-02 
   9.62837000E+00    9.20811000E-01   2.37153000E-01 
   2.85332000E+00   -3.27447000E-03   8.19702000E-01 
SP   1    1.000000
   9.05661000E-01    1.00000000E+00   1.00000000E+00 
SP   1    1.000000
   2.55611000E-01    1.00000000E+00   1.00000000E+00 
SP   1    1.000000
   8.45000000E-02    1.00000000E+00   1.00000000E+00 
SP   1    1.000000
   2.54518072E-02    1.00000000E+00   1.00000000E+00 
D    1    1.000000
   1.29200000E+00    1.00000000E+00 

7    0
S    1    1.000000
   4.56324000E+03    1.96665000E-03 
S    1    1.000000
   6.82024000E+02    1.52306000E-02 
S    1    1.000000
   1.54973000E+02    7.61269000E-02 
S    1    1.000000
   4.44553000E+01    2.60801000E-01 
S    1    1.000000
   1.30290000E+01    6.16462000E-01 
S    1    1.000000
   1.82773000E+00    2.21006000E-01 
SP   3    1.000000
   2.09642000E+01    1.14660000E-01   4.02487000E-02 
   4.80331000E+00    9.19999000E-01   2.37594000E-01 
   1.45933000E+00   -3.03068000E-03   8.15854000E-01 
SP   1    1.000000
   4.83456000E-01    1.00000000E+00   1.00000000E+00 
SP   1    1.000000
   1.45585000E-01    1.00000000E+00   1.00000000E+00 
SP   1    1.000000
   4.38000000E-02    1.00000000E+00   1.00000000E+00 
SP   1    1.000000
   1.31927711E-02    1.00000000E+00   1.00000000E+00 
D    1    1.000000
   6.26000000E-01    1.00000000E+00 

8    0
S    1    1.000000
   8.58850000E+03    1.89515000E-03 
S    1    1.000000
   1.29723000E+03    1.43859000E-02 
S    1    1.000000
   2.99296000E+02    7.07320000E-02 
S    1    1.000000
   8.73771000E+01    2.40001000E-01 
S    1    1.000000
   2.56789000E+01    5.94797000E-01 
S    1    1.000000
   3.74004000E+00    2.80802000E-01 
SP   3    1.000000
   4.21175000E+01    1.13889000E-01   3.65114000E-02 
   9.62837000E+00    9.20811000E-01   2.37153000E-01 
   2.85332000E+00   -3.27447000E-03   8.19702000E-01 
SP   1    1.000000
   9.05661000E-01    1.00000000E+00   1.00000000E+00 
SP   1    1.000000
   2.55611000E-01    1.00000000E+00   1.00000000E+00 
SP   1    1.000000
   8.45000000E-02    1.00000000E+00   1.00000000E+00 
SP   1    1.000000
   2.54518072E-02    1.00000000E+00   1.00000000E+00 
D    1    1.000000
   1.29200000E+00    1.00000000E+00 

9    0
S    1    1.000000
   6.29348000E+03    1.96979000E-03 
S    1    1.000000
   9.49044000E+02    1.49613000E-02 
S    1    1.000000
   2.18776000E+02    7.35006000E-02 
S    1    1.000000
   6.36916000E+01    2.48937000E-01 
S    1    1.000000
   1.88282000E+01    6.02460000E-01 
S    1    1.000000
   2.72023000E+00    2.56202000E-01 
SP   3    1.000000
   3.06331000E+01    1.11906000E-01   3.83119000E-02 
   7.02614000E+00    9.21666000E-01   2.37403000E-01 
   2.11205000E+00   -2.56919000E-03   8.17592000E-01 
SP   1    1.000000
   6.84009000E-01    1.00000000E+00   1.00000000E+00 
SP   1    1.000000
   2.00878000E-01    1.00000000E+00   1.00000000E+00 
SP   1    1.000000
   6.39000000E-02    1.00000000E+00   1.00000000E+00 
SP   1    1.000000
   1.92469880E-02    1.00000000E+00   1.00000000E+00 
D    1    1.000000
   9.13000000E-01    1.00000000E+00 

10    0
S    1    1.000000
   6.29348000E+03    1.96979000E-03 
S    1    1.000000
   9.49044000E+02    1.49613000E-02 
S    1    1.000000
   2.18776000E+02    7.35006000E-02 
S    1    1.000000
   6.36916000E+01    2.48937000E-01 
S    1    1.000000
   1.88282000E+01    6.02460000E-01 
S    1    1.000000
   2.72023000E+00    2.56202000E-01 
SP   3    1.000000
   3.06331000E+01    1.11906000E-01   3.83119000E-02 
   7.02614000E+00    9.21666000E-01   2.37403000E-01 
   2.11205000E+00   -2.56919000E-03   8.17592000E-01 
SP   1    1.000000
   6.84009000E-01    1.00000000E+00   1.00000000E+00 
SP   1    1.000000
   2.00878000E-01    1.00000000E+00   1.00000000E+00 
SP   1    1.000000
   6.39000000E-02    1.00000000E+00   1.00000000E+00 
SP   1    1.000000
   1.92469880E-02    1.00000000E+00   1.00000000E+00 
D    1    1.000000
   9.13000000E-01    1.00000000E+00 

11    0
S    1    1.000000
   4.56324000E+03    1.96665000E-03 
S    1    1.000000
   6.82024000E+02    1.52306000E-02 
S    1    1.000000
   1.54973000E+02    7.61269000E-02 
S    1    1.000000
   4.44553000E+01    2.60801000E-01 
S    1    1.000000
   1.30290000E+01    6.16462000E-01 
S    1    1.000000
   1.82773000E+00    2.21006000E-01 
SP   3    1.000000
   2.09642000E+01    1.14660000E-01   4.02487000E-02 
   4.80331000E+00    9.19999000E-01   2.37594000E-01 
   1.45933000E+00   -3.03068000E-03   8.15854000E-01 
SP   1    1.000000
   4.83456000E-01    1.00000000E+00   1.00000000E+00 
SP   1    1.000000
   1.45585000E-01    1.00000000E+00   1.00000000E+00 
SP   1    1.000000
   4.38000000E-02    1.00000000E+00   1.00000000E+00 
SP   1    1.000000
   1.31927711E-02    1.00000000E+00   1.00000000E+00 
D    1    1.000000
   6.26000000E-01    1.00000000E+00 

12    0
S    3    1.000000
   3.38650000E+01    2.54938000E-02 
   5.09479000E+00    1.90373000E-01 
   1.15879000E+00    8.52161000E-01 
S    1    1.000000
   3.25840000E-01    1.00000000E+00 
S    1    1.000000
   1.02741000E-01    1.00000000E+00 
S    1    1.000000
   3.60000000E-02    1.00000000E+00 
P    1    1.000000
   7.50000000E-01    1.00000000E+00 

[MO]
Sym=X
Ene=0.121597
Spin=Alpha
Occup=1
1    -0.0011092492
2    -0.00858739772
3    -0.0428375253
4    -0.147074973
5    -0.347435206
6    -0.126692061
7    -0.465260454
8    0.0011153852
9    -0.000314664004
10    7.49458535e-16
11    -0.00166879674
12    -0.00105935406
13    6.63849835e-05
14    -2.53657461e-15
15    -0.00148431131
16    0.000300854115
17    -0.000861832411
18    9.11875429e-15
19    -0.000914694536
20    0.000703659337
21    -0.000571724678
22    -8.29611008e-14
23    0.000151350953
24    -7.57066025e-05
25    2.91828997e-05
26    6.98936868e-14
27    -0.000363079425
28    1.38129077e-16
29    0.000237463304
30    1.43102173e-15
31    -8.8250054e-05
32    -2.89646693e-05
33    -5.09768652e-05
34    -3.64607387e-05
35    0.000103624513
36    -4.65621608e-05
37    -1.54824671e-05
38    -1.44156952e-15
39    -0.000379977522
40    -0.000463341875
41    -0.00024241636
42    -0.000140522779
43    -4.13796289e-05
44    -0.000307516695
45    8.80581794e-17
46    -1.23295641e-05
47    5.73941305e-05
48    -0.000241452984
49    -0.000251253978
50    -5.57024453e-06
51    -4.75998573e-06
52    -1.49113564e-15
53    -1.105976e-08
54    -1.16989356e-07
55    -3.61421025e-07
56    -2.08117441e-06
57    4.20219299e-06
58    4.53691535e-05
59    -2.95610631e-05
60    5.08021134e-06
61    -2.12876375e-05
62    -6.7043183e-15
63    -0.000108934962
64    -1.89216299e-05
65    8.427775e-05
66    -8.38171925e-15
67    -0.000234780999
68    0.000630220276
69    -0.000397668831
70    -1.33103234e-14
71    -0.000674219416
72    0.00031788838
73    -0.000577828369
74    -1.00022121e-13
75    -0.000504953181
76    -0.000175997343
77    -7.5687386e-06
78    -7.37733449e-14
79    1.82032473e-05
80    -9.80450108e-16
81    -3.92868489e-06
82    2.09416889e-15
83    4.46459333e-05
84    2.53090387e-09
85    -6.62214889e-09
86    1.54802782e-07
87    -1.73253563e-07
88    6.36790725e-06
89    2.57325465e-05
90    -1.4243687e-05
91    4.1583989e-06
92    -1.92545469e-06
93    -4.84263749e-15
94    -6.96917067e-05
95    -2.63411626e-05
96    2.59294453e-05
97    -7.16961121e-15
98    0.000303814973
99    0.000156756646
100    -8.68951648e-05
101    -1.48505674e-14
102    0.00102154131
103    0.000160072087
104    -0.000136828617
105    1.11855258e-15
106    0.00135421527
107    0.000276079896
108    -4.60986088e-05
109    2.71650723e-14
110    2.32838779e-06
111    1.37854868e-15
112    -7.02002118e-07
113    -1.41611699e-15
114    5.44031731e-06
115    5.36081278e-07
116    4.09834501e-06
117    2.08156429e-05
118    7.00085113e-05
119    0.000178958386
120    0.000116215632
121    0.000190986256
122    -7.50599388e-06
123    -2.66363608e-05
124    2.05761313e-15
125    -8.73784843e-05
126    3.07526555e-05
127    0.000111467092
128    3.92532107e-15
129    -0.000222734349
130    0.000199011873
131    0.000133475748
132    1.01506984e-14
133    0.000126605461
134    -0.000245406283
135    -0.000221114824
136    -9.23287626e-14
137    -4.47386727e-05
138    -0.000191806515
139    7.20580724e-05
140    4.0231565e-14
141    -3.50560687e-05
142    -6.41268287e-17
143    5.30517997e-06
144    2.01881742e-15
145    4.70651997e-05
146    1.93236701e-09
147    1.66994339e-08
148    6.80433052e-08
149    2.82803526e-07
150    1.28319908e-07
151    -2.08748207e-06
152    2.50044807e-06
153    -7.41866063e-07
154    -2.38565891e-06
155    1.51212892e-15
156    8.72373449e-06
157    6.70950912e-06
158    1.98375082e-05
159    6.36882318e-15
160    -0.000111776364
161    1.22188886e-06
162    -2.48364269e-07
163    -1.35348134e-15
164    9.62950156e-05
165    7.49273176e-06
166    1.51186983e-05
167    2.67699648e-14
168    -4.08512454e-05
169    -8.58528915e-06
170    4.96933669e-05
171    4.68176289e-15
172    -3.87089163e-06
173    -2.79459015e-16
174    1.2412577e-06
175    -1.14705837e-16
176    6.37790144e-06
177    4.09539671e-09
178    -7.77619879e-09
179    2.41999104e-07
180    -2.59450877e-07
181    9.15497949e-06
182    3.66440569e-05
183    -2.11627555e-05
184    -4.57831401e-07
185    -7.88302173e-06
186    -3.63260472e-15
187    -6.90557013e-05
188    6.46479301e-06
189    2.98545392e-05
190    1.73386304e-15
191    -2.77134711e-05
192    4.59622143e-05
193    -2.43339825e-05
194    -2.21407773e-14
195    -7.63909659e-05
196    -0.000172824428
197    0.000538681603
198    6.79635216e-14
199    -0.000745107337
200    0.00030434731
201    0.000124119521
202    7.31806194e-14
203    -6.65640065e-06
204    3.0502913e-16
205    2.72960402e-06
206    1.87585007e-15
207    -6.00496265e-06
208    2.38687384e-07
209    1.64514961e-06
210    9.42175916e-06
211    2.73326365e-05
212    0.000112630339
213    0.000267869894
214    3.85495146e-05
215    -6.79914154e-05
216    4.07843529e-05
217    -5.17587278e-15
218    -0.000671663964
219    -0.000731543473
220    0.000443338525
221    2.57303318e-15
222    9.71315992e-05
223    1.88232992e-05
224    -7.9931744e-05
225    -2.80713531e-14
226    0.0013291168
227    0.000457994504
228    -0.00036618326
229    6.65014992e-14
230    0.000589392931
231    0.000320573401
232    -5.24377166e-05
233    3.18910586e-14
234    0.000328023379
235    -8.7901151e-16
236    0.000130093897
237    1.74116654e-16
238    -0.000182671199
239    1.55425402e-05
240    0.000120480011
241    0.000600018054
242    0.00206463865
243    0.00483776568
244    0.00169628443
245    0.00666367768
246    0.000147870725
247    7.65816935e-05
248    1.45754607e-15
249    -0.000143436554
250    0.000238595114
251    0.000104207607
252    5.85312731e-15
253    0.000827325329
254    -0.000604431963
255    0.000273592946
256    -5.46355423e-15
257    -0.00107292809
258    9.68836712e-06
259    0.000647514448
260    1.0467541e-13
261    0.00022478376
262    0.00017159615
263    0.000111900104
264    -5.87115712e-14
265    -0.000163004666
266    1.89419744e-16
267    -5.23269016e-05
268    1.1719474e-15
269    -0.000148505613
270    -2.03198571e-05
271    -1.56445596e-05
272    0.000364028533
273    0.000291704164
274    8.16164069e-05
275    1.70980738e-05
276    1.85495021e-15
[5D]