[Molden Format]
[Atoms] (Angs)
  C      1    6     -0.00714236     -1.70213747     -0.00000000
  H      2    1     -2.06882847     -1.44022412      0.00000000
  H      3    1     -0.12337987     -2.77567521      0.00000000
  H      4    1      0.04651892      1.98813947     -0.00000000
  C      5    6     -1.21953563      0.40211669      0.00000000
  O      6    8     -2.25921553      1.03043814      0.00000000
  C      7    6      1.28797806      0.34644937     -0.00000000
  O      8    8      2.31273661      1.00537216     -0.00000000
  N      9    7      0.03446295      0.97739857     -0.00000000
  N     10    7     -1.17287765     -0.98229824      0.00000000
  C     11    6      1.20107039     -1.10433419     -0.00000000
  H     12    1      2.11220096     -1.67699125     -0.00000000
[GTO]
1    0
S    1    1.000000
   4.56324000E+03    1.96665000E-03 
S    1    1.000000
   6.82024000E+02    1.52306000E-02 
S    1    1.000000
   1.54973000E+02    7.61269000E-02 
S    1    1.000000
   4.44553000E+01    2.60801000E-01 
S    1    1.000000
   1.30290000E+01    6.16462000E-01 
S    1    1.000000
   1.82773000E+00    2.21006000E-01 
SP   3    1.000000
   2.09642000E+01    1.14660000E-01   4.02487000E-02 
   4.80331000E+00    9.19999000E-01   2.37594000E-01 
   1.45933000E+00   -3.03068000E-03   8.15854000E-01 
SP   1    1.000000
   4.83456000E-01    1.00000000E+00   1.00000000E+00 
SP   1    1.000000
   1.45585000E-01    1.00000000E+00   1.00000000E+00 
SP   1    1.000000
   4.38000000E-02    1.00000000E+00   1.00000000E+00 
SP   1    1.000000
   1.31927711E-02    1.00000000E+00   1.00000000E+00 
D    1    1.000000
   6.26000000E-01    1.00000000E+00 

2    0
S    3    1.000000
   3.38650000E+01    2.54938000E-02 
   5.09479000E+00    1.90373000E-01 
   1.15879000E+00    8.52161000E-01 
S    1    1.000000
   3.25840000E-01    1.00000000E+00 
S    1    1.000000
   1.02741000E-01    1.00000000E+00 
S    1    1.000000
   3.60000000E-02    1.00000000E+00 
P    1    1.000000
   7.50000000E-01    1.00000000E+00 

3    0
S    3    1.000000
   3.38650000E+01    2.54938000E-02 
   5.09479000E+00    1.90373000E-01 
   1.15879000E+00    8.52161000E-01 
S    1    1.000000
   3.25840000E-01    1.00000000E+00 
S    1    1.000000
   1.02741000E-01    1.00000000E+00 
S    1    1.000000
   3.60000000E-02    1.00000000E+00 
P    1    1.000000
   7.50000000E-01    1.00000000E+00 

4    0
S    3    1.000000
   3.38650000E+01    2.54938000E-02 
   5.09479000E+00    1.90373000E-01 
   1.15879000E+00    8.52161000E-01 
S    1    1.000000
   3.25840000E-01    1.00000000E+00 
S    1    1.000000
   1.02741000E-01    1.00000000E+00 
S    1    1.000000
   3.60000000E-02    1.00000000E+00 
P    1    1.000000
   7.50000000E-01    1.00000000E+00 

5    0
S    1    1.000000
   4.56324000E+03    1.96665000E-03 
S    1    1.000000
   6.82024000E+02    1.52306000E-02 
S    1    1.000000
   1.54973000E+02    7.61269000E-02 
S    1    1.000000
   4.44553000E+01    2.60801000E-01 
S    1    1.000000
   1.30290000E+01    6.16462000E-01 
S    1    1.000000
   1.82773000E+00    2.21006000E-01 
SP   3    1.000000
   2.09642000E+01    1.14660000E-01   4.02487000E-02 
   4.80331000E+00    9.19999000E-01   2.37594000E-01 
   1.45933000E+00   -3.03068000E-03   8.15854000E-01 
SP   1    1.000000
   4.83456000E-01    1.00000000E+00   1.00000000E+00 
SP   1    1.000000
   1.45585000E-01    1.00000000E+00   1.00000000E+00 
SP   1    1.000000
   4.38000000E-02    1.00000000E+00   1.00000000E+00 
SP   1    1.000000
   1.31927711E-02    1.00000000E+00   1.00000000E+00 
D    1    1.000000
   6.26000000E-01    1.00000000E+00 

6    0
S    1    1.000000
   8.58850000E+03    1.89515000E-03 
S    1    1.000000
   1.29723000E+03    1.43859000E-02 
S    1    1.000000
   2.99296000E+02    7.07320000E-02 
S    1    1.000000
   8.73771000E+01    2.40001000E-01 
S    1    1.000000
   2.56789000E+01    5.94797000E-01 
S    1    1.000000
   3.74004000E+00    2.80802000E-01 
SP   3    1.000000
   4.21175000E+01    1.13889000E-01   3.65114000E-02 
   9.62837000E+00    9.20811000E-01   2.37153000E-01 
   2.85332000E+00   -3.27447000E-03   8.19702000E-01 
SP   1    1.000000
   9.05661000E-01    1.00000000E+00   1.00000000E+00 
SP   1    1.000000
   2.55611000E-01    1.00000000E+00   1.00000000E+00 
SP   1    1.000000
   8.45000000E-02    1.00000000E+00   1.00000000E+00 
SP   1    1.000000
   2.54518072E-02    1.00000000E+00   1.00000000E+00 
D    1    1.000000
   1.29200000E+00    1.00000000E+00 

7    0
S    1    1.000000
   4.56324000E+03    1.96665000E-03 
S    1    1.000000
   6.82024000E+02    1.52306000E-02 
S    1    1.000000
   1.54973000E+02    7.61269000E-02 
S    1    1.000000
   4.44553000E+01    2.60801000E-01 
S    1    1.000000
   1.30290000E+01    6.16462000E-01 
S    1    1.000000
   1.82773000E+00    2.21006000E-01 
SP   3    1.000000
   2.09642000E+01    1.14660000E-01   4.02487000E-02 
   4.80331000E+00    9.19999000E-01   2.37594000E-01 
   1.45933000E+00   -3.03068000E-03   8.15854000E-01 
SP   1    1.000000
   4.83456000E-01    1.00000000E+00   1.00000000E+00 
SP   1    1.000000
   1.45585000E-01    1.00000000E+00   1.00000000E+00 
SP   1    1.000000
   4.38000000E-02    1.00000000E+00   1.00000000E+00 
SP   1    1.000000
   1.31927711E-02    1.00000000E+00   1.00000000E+00 
D    1    1.000000
   6.26000000E-01    1.00000000E+00 

8    0
S    1    1.000000
   8.58850000E+03    1.89515000E-03 
S    1    1.000000
   1.29723000E+03    1.43859000E-02 
S    1    1.000000
   2.99296000E+02    7.07320000E-02 
S    1    1.000000
   8.73771000E+01    2.40001000E-01 
S    1    1.000000
   2.56789000E+01    5.94797000E-01 
S    1    1.000000
   3.74004000E+00    2.80802000E-01 
SP   3    1.000000
   4.21175000E+01    1.13889000E-01   3.65114000E-02 
   9.62837000E+00    9.20811000E-01   2.37153000E-01 
   2.85332000E+00   -3.27447000E-03   8.19702000E-01 
SP   1    1.000000
   9.05661000E-01    1.00000000E+00   1.00000000E+00 
SP   1    1.000000
   2.55611000E-01    1.00000000E+00   1.00000000E+00 
SP   1    1.000000
   8.45000000E-02    1.00000000E+00   1.00000000E+00 
SP   1    1.000000
   2.54518072E-02    1.00000000E+00   1.00000000E+00 
D    1    1.000000
   1.29200000E+00    1.00000000E+00 

9    0
S    1    1.000000
   6.29348000E+03    1.96979000E-03 
S    1    1.000000
   9.49044000E+02    1.49613000E-02 
S    1    1.000000
   2.18776000E+02    7.35006000E-02 
S    1    1.000000
   6.36916000E+01    2.48937000E-01 
S    1    1.000000
   1.88282000E+01    6.02460000E-01 
S    1    1.000000
   2.72023000E+00    2.56202000E-01 
SP   3    1.000000
   3.06331000E+01    1.11906000E-01   3.83119000E-02 
   7.02614000E+00    9.21666000E-01   2.37403000E-01 
   2.11205000E+00   -2.56919000E-03   8.17592000E-01 
SP   1    1.000000
   6.84009000E-01    1.00000000E+00   1.00000000E+00 
SP   1    1.000000
   2.00878000E-01    1.00000000E+00   1.00000000E+00 
SP   1    1.000000
   6.39000000E-02    1.00000000E+00   1.00000000E+00 
SP   1    1.000000
   1.92469880E-02    1.00000000E+00   1.00000000E+00 
D    1    1.000000
   9.13000000E-01    1.00000000E+00 

10    0
S    1    1.000000
   6.29348000E+03    1.96979000E-03 
S    1    1.000000
   9.49044000E+02    1.49613000E-02 
S    1    1.000000
   2.18776000E+02    7.35006000E-02 
S    1    1.000000
   6.36916000E+01    2.48937000E-01 
S    1    1.000000
   1.88282000E+01    6.02460000E-01 
S    1    1.000000
   2.72023000E+00    2.56202000E-01 
SP   3    1.000000
   3.06331000E+01    1.11906000E-01   3.83119000E-02 
   7.02614000E+00    9.21666000E-01   2.37403000E-01 
   2.11205000E+00   -2.56919000E-03   8.17592000E-01 
SP   1    1.000000
   6.84009000E-01    1.00000000E+00   1.00000000E+00 
SP   1    1.000000
   2.00878000E-01    1.00000000E+00   1.00000000E+00 
SP   1    1.000000
   6.39000000E-02    1.00000000E+00   1.00000000E+00 
SP   1    1.000000
   1.92469880E-02    1.00000000E+00   1.00000000E+00 
D    1    1.000000
   9.13000000E-01    1.00000000E+00 

11    0
S    1    1.000000
   4.56324000E+03    1.96665000E-03 
S    1    1.000000
   6.82024000E+02    1.52306000E-02 
S    1    1.000000
   1.54973000E+02    7.61269000E-02 
S    1    1.000000
   4.44553000E+01    2.60801000E-01 
S    1    1.000000
   1.30290000E+01    6.16462000E-01 
S    1    1.000000
   1.82773000E+00    2.21006000E-01 
SP   3    1.000000
   2.09642000E+01    1.14660000E-01   4.02487000E-02 
   4.80331000E+00    9.19999000E-01   2.37594000E-01 
   1.45933000E+00   -3.03068000E-03   8.15854000E-01 
SP   1    1.000000
   4.83456000E-01    1.00000000E+00   1.00000000E+00 
SP   1    1.000000
   1.45585000E-01    1.00000000E+00   1.00000000E+00 
SP   1    1.000000
   4.38000000E-02    1.00000000E+00   1.00000000E+00 
SP   1    1.000000
   1.31927711E-02    1.00000000E+00   1.00000000E+00 
D    1    1.000000
   6.26000000E-01    1.00000000E+00 

12    0
S    3    1.000000
   3.38650000E+01    2.54938000E-02 
   5.09479000E+00    1.90373000E-01 
   1.15879000E+00    8.52161000E-01 
S    1    1.000000
   3.25840000E-01    1.00000000E+00 
S    1    1.000000
   1.02741000E-01    1.00000000E+00 
S    1    1.000000
   3.60000000E-02    1.00000000E+00 
P    1    1.000000
   7.50000000E-01    1.00000000E+00 

[MO]
Sym=X
Ene=0.094937
Spin=Alpha
Occup=1
1    2.34264684e-06
2    1.80984936e-05
3    9.05512131e-05
4    0.000309865834
5    0.000742351702
6    0.000317595086
7    0.000956133242
8    1.4636487e-05
9    1.5202434e-05
10    -8.87436973e-16
11    -0.000113585054
12    -0.000115486144
13    -0.000102161373
14    1.9760366e-15
15    8.43161213e-05
16    9.26510165e-05
17    -0.000103517041
18    -4.80370262e-15
19    0.00175126293
20    1.94385189e-05
21    0.000621069714
22    2.88408792e-14
23    -2.35885325e-05
24    -9.54241385e-05
25    0.000213081544
26    5.28919537e-14
27    -7.35716141e-05
28    -6.65226305e-16
29    -8.31100545e-07
30    -5.15499698e-16
31    -1.26523976e-05
32    -1.04837622e-05
33    3.88255976e-05
34    -0.000213566531
35    -0.000324606005
36    -1.33119531e-06
37    4.56293286e-06
38    6.12766745e-16
39    1.07503482e-06
40    -8.85968218e-05
41    3.90530008e-05
42    1.94900814e-05
43    -1.64780213e-05
44    -1.88298236e-05
45    -2.7290838e-16
46    -3.45458689e-05
47    -5.19313094e-05
48    -0.000131121014
49    0.000233775236
50    1.22523667e-05
51    4.15850819e-05
52    -3.3221024e-16
53    -2.80148184e-06
54    -2.17167309e-05
55    -0.000108129215
56    -0.000372024798
57    -0.000870801162
58    -0.000280984875
59    -0.00119690092
60    1.59735907e-05
61    2.74470739e-06
62    1.25421967e-15
63    -7.80635019e-05
64    -5.00438938e-05
65    -3.57860988e-06
66    -2.79869859e-16
67    3.90228903e-05
68    0.00047494649
69    -0.00022629232
70    3.6845999e-15
71    -0.000573319039
72    0.000131619712
73    0.000260939016
74    2.37225611e-14
75    0.000480605497
76    0.000186294134
77    5.72920616e-05
78    9.02365875e-15
79    -4.75529629e-06
80    -4.18900927e-16
81    -1.43976551e-06
82    -7.77101244e-16
83    -4.38863576e-05
84    2.38449074e-09
85    4.92076892e-09
86    1.20583931e-07
87    5.08151988e-08
88    3.56714004e-06
89    1.32029304e-05
90    -6.34604969e-06
91    5.45561682e-07
92    -5.68544373e-07
93    5.36275473e-16
94    -3.81339996e-05
95    -2.11707666e-05
96    2.32220693e-06
97    7.7343143e-16
98    0.000176885885
99    8.29159821e-05
100    -6.45625048e-05
101    3.48691696e-15
102    0.000763594841
103    0.000234915383
104    -6.09701115e-05
105    -3.33209736e-15
106    0.000213602744
107    -5.00620066e-05
108    -0.00020907065
109    1.32669417e-14
110    -4.39959822e-06
111    -6.89070061e-16
112    -1.08034168e-06
113    6.99168943e-17
114    -5.46134306e-06
115    -0.00110952501
116    -0.00858937584
117    -0.042848762
118    -0.147107507
119    -0.347543706
120    -0.12644351
121    -0.465468274
122    0.000739957193
123    -0.000491666101
124    -2.09687287e-15
125    -0.00162748149
126    -0.000805074606
127    0.00024337945
128    -4.7709308e-15
129    -0.00152612527
130    0.000287204676
131    -0.000415796093
132    -3.98906517e-15
133    0.00234429834
134    -0.000152969116
135    -0.00241466591
136    3.20341203e-14
137    0.000258239946
138    0.000298455195
139    -4.50282259e-05
140    1.76141452e-15
141    -0.000334952537
142    -2.12137169e-16
143    0.000254614471
144    -1.67196837e-16
145    4.98781164e-05
146    3.51289504e-07
147    2.56830673e-06
148    1.35302136e-05
149    4.30411818e-05
150    0.000131444055
151    0.000191362188
152    0.00018117489
153    0.000205194944
154    0.000137213897
155    -1.87080862e-15
156    -0.000642606128
157    0.000558736779
158    0.000371907951
159    -1.67695306e-15
160    0.000265848012
161    -0.00022940358
162    -0.000115369195
163    -2.55352284e-15
164    0.000368596148
165    7.00060134e-05
166    0.000188316988
167    -1.20124149e-14
168    0.0022159344
169    -0.000593030951
170    -6.53026862e-05
171    7.49941552e-15
172    -0.000256636396
173    2.36245776e-16
174    0.000114607983
175    4.0004951e-16
176    -0.000114053556
177    2.42613261e-07
178    1.66269488e-06
179    9.58215881e-06
180    2.74829134e-05
181    0.000115142417
182    0.000257917652
183    3.08228133e-05
184    -4.46550018e-05
185    3.88237934e-05
186    7.9409104e-17
187    -0.000571744317
188    -0.000693071441
189    0.000329781488
190    -4.58374457e-15
191    -5.17040317e-05
192    0.000161407685
193    0.000157383017
194    5.22299284e-15
195    0.00125234121
196    0.00101471011
197    1.58291733e-05
198    -2.64625496e-14
199    -0.000434007314
200    -0.000652134859
201    -9.16652966e-05
202    -1.33089897e-14
203    0.000267963301
204    8.68043622e-17
205    0.000124001447
206    -7.88643078e-16
207    -0.000216580587
208    6.84087531e-10
209    -3.34363619e-08
210    1.13814254e-07
211    -6.84195211e-07
212    8.07907125e-06
213    3.63184244e-05
214    -2.26281943e-05
215    7.21762704e-06
216    1.34140225e-06
217    1.67732658e-15
218    -6.99545609e-05
219    -2.63321697e-05
220    -1.17256225e-05
221    2.86208204e-16
222    1.05619584e-05
223    2.58406354e-05
224    -3.56919113e-05
225    5.75528032e-15
226    -0.000118221715
227    -0.000458120435
228    -7.68150995e-05
229    -9.85019731e-15
230    -0.000737224342
231    2.20784919e-05
232    -0.000352802991
233    -4.45297946e-14
234    8.76305048e-06
235    -2.36206362e-16
236    3.89570649e-06
237    -1.30778543e-16
238    4.63188047e-06
239    -2.84165823e-06
240    -2.19579689e-05
241    -0.0001097429
242    -0.000375406934
243    -0.000893136084
244    -0.00028889878
245    -0.00114567098
246    1.3456796e-06
247    -8.97395786e-05
248    -1.30274721e-15
249    -0.000295767128
250    -7.44793429e-05
251    -0.000489413274
252    -2.41550642e-15
253    0.000195421859
254    -4.79571184e-05
255    0.000271556096
256    -1.09138754e-15
257    -0.00601094337
258    0.000262507226
259    -0.00143123097
260    -3.02019858e-14
261    -0.000623441332
262    -9.91659598e-05
263    -0.000365803429
264    -3.21113779e-14
265    -3.50196949e-05
266    -7.69246346e-16
267    2.22880235e-05
268    -1.59580871e-17
269    0.000283724504
270    -2.52540319e-05
271    -9.14374877e-05
272    0.00017867898
273    -0.000267835159
274    3.65552794e-05
275    -7.22564896e-05
276    -5.08636708e-16
[5D]