[Molden Format]
[Atoms] (Angs)
  C      1    6     -0.00714236     -1.70213747     -0.00000000
  H      2    1     -2.06882847     -1.44022412      0.00000000
  H      3    1     -0.12337987     -2.77567521      0.00000000
  H      4    1      0.04651892      1.98813947     -0.00000000
  C      5    6     -1.21953563      0.40211669      0.00000000
  O      6    8     -2.25921553      1.03043814      0.00000000
  C      7    6      1.28797806      0.34644937     -0.00000000
  O      8    8      2.31273661      1.00537216     -0.00000000
  N      9    7      0.03446295      0.97739857     -0.00000000
  N     10    7     -1.17287765     -0.98229824      0.00000000
  C     11    6      1.20107039     -1.10433419     -0.00000000
  H     12    1      2.11220096     -1.67699125     -0.00000000
[GTO]
1    0
S    1    1.000000
   4.56324000E+03    1.96665000E-03 
S    1    1.000000
   6.82024000E+02    1.52306000E-02 
S    1    1.000000
   1.54973000E+02    7.61269000E-02 
S    1    1.000000
   4.44553000E+01    2.60801000E-01 
S    1    1.000000
   1.30290000E+01    6.16462000E-01 
S    1    1.000000
   1.82773000E+00    2.21006000E-01 
SP   3    1.000000
   2.09642000E+01    1.14660000E-01   4.02487000E-02 
   4.80331000E+00    9.19999000E-01   2.37594000E-01 
   1.45933000E+00   -3.03068000E-03   8.15854000E-01 
SP   1    1.000000
   4.83456000E-01    1.00000000E+00   1.00000000E+00 
SP   1    1.000000
   1.45585000E-01    1.00000000E+00   1.00000000E+00 
SP   1    1.000000
   4.38000000E-02    1.00000000E+00   1.00000000E+00 
SP   1    1.000000
   1.31927711E-02    1.00000000E+00   1.00000000E+00 
D    1    1.000000
   6.26000000E-01    1.00000000E+00 

2    0
S    3    1.000000
   3.38650000E+01    2.54938000E-02 
   5.09479000E+00    1.90373000E-01 
   1.15879000E+00    8.52161000E-01 
S    1    1.000000
   3.25840000E-01    1.00000000E+00 
S    1    1.000000
   1.02741000E-01    1.00000000E+00 
S    1    1.000000
   3.60000000E-02    1.00000000E+00 
P    1    1.000000
   7.50000000E-01    1.00000000E+00 

3    0
S    3    1.000000
   3.38650000E+01    2.54938000E-02 
   5.09479000E+00    1.90373000E-01 
   1.15879000E+00    8.52161000E-01 
S    1    1.000000
   3.25840000E-01    1.00000000E+00 
S    1    1.000000
   1.02741000E-01    1.00000000E+00 
S    1    1.000000
   3.60000000E-02    1.00000000E+00 
P    1    1.000000
   7.50000000E-01    1.00000000E+00 

4    0
S    3    1.000000
   3.38650000E+01    2.54938000E-02 
   5.09479000E+00    1.90373000E-01 
   1.15879000E+00    8.52161000E-01 
S    1    1.000000
   3.25840000E-01    1.00000000E+00 
S    1    1.000000
   1.02741000E-01    1.00000000E+00 
S    1    1.000000
   3.60000000E-02    1.00000000E+00 
P    1    1.000000
   7.50000000E-01    1.00000000E+00 

5    0
S    1    1.000000
   4.56324000E+03    1.96665000E-03 
S    1    1.000000
   6.82024000E+02    1.52306000E-02 
S    1    1.000000
   1.54973000E+02    7.61269000E-02 
S    1    1.000000
   4.44553000E+01    2.60801000E-01 
S    1    1.000000
   1.30290000E+01    6.16462000E-01 
S    1    1.000000
   1.82773000E+00    2.21006000E-01 
SP   3    1.000000
   2.09642000E+01    1.14660000E-01   4.02487000E-02 
   4.80331000E+00    9.19999000E-01   2.37594000E-01 
   1.45933000E+00   -3.03068000E-03   8.15854000E-01 
SP   1    1.000000
   4.83456000E-01    1.00000000E+00   1.00000000E+00 
SP   1    1.000000
   1.45585000E-01    1.00000000E+00   1.00000000E+00 
SP   1    1.000000
   4.38000000E-02    1.00000000E+00   1.00000000E+00 
SP   1    1.000000
   1.31927711E-02    1.00000000E+00   1.00000000E+00 
D    1    1.000000
   6.26000000E-01    1.00000000E+00 

6    0
S    1    1.000000
   8.58850000E+03    1.89515000E-03 
S    1    1.000000
   1.29723000E+03    1.43859000E-02 
S    1    1.000000
   2.99296000E+02    7.07320000E-02 
S    1    1.000000
   8.73771000E+01    2.40001000E-01 
S    1    1.000000
   2.56789000E+01    5.94797000E-01 
S    1    1.000000
   3.74004000E+00    2.80802000E-01 
SP   3    1.000000
   4.21175000E+01    1.13889000E-01   3.65114000E-02 
   9.62837000E+00    9.20811000E-01   2.37153000E-01 
   2.85332000E+00   -3.27447000E-03   8.19702000E-01 
SP   1    1.000000
   9.05661000E-01    1.00000000E+00   1.00000000E+00 
SP   1    1.000000
   2.55611000E-01    1.00000000E+00   1.00000000E+00 
SP   1    1.000000
   8.45000000E-02    1.00000000E+00   1.00000000E+00 
SP   1    1.000000
   2.54518072E-02    1.00000000E+00   1.00000000E+00 
D    1    1.000000
   1.29200000E+00    1.00000000E+00 

7    0
S    1    1.000000
   4.56324000E+03    1.96665000E-03 
S    1    1.000000
   6.82024000E+02    1.52306000E-02 
S    1    1.000000
   1.54973000E+02    7.61269000E-02 
S    1    1.000000
   4.44553000E+01    2.60801000E-01 
S    1    1.000000
   1.30290000E+01    6.16462000E-01 
S    1    1.000000
   1.82773000E+00    2.21006000E-01 
SP   3    1.000000
   2.09642000E+01    1.14660000E-01   4.02487000E-02 
   4.80331000E+00    9.19999000E-01   2.37594000E-01 
   1.45933000E+00   -3.03068000E-03   8.15854000E-01 
SP   1    1.000000
   4.83456000E-01    1.00000000E+00   1.00000000E+00 
SP   1    1.000000
   1.45585000E-01    1.00000000E+00   1.00000000E+00 
SP   1    1.000000
   4.38000000E-02    1.00000000E+00   1.00000000E+00 
SP   1    1.000000
   1.31927711E-02    1.00000000E+00   1.00000000E+00 
D    1    1.000000
   6.26000000E-01    1.00000000E+00 

8    0
S    1    1.000000
   8.58850000E+03    1.89515000E-03 
S    1    1.000000
   1.29723000E+03    1.43859000E-02 
S    1    1.000000
   2.99296000E+02    7.07320000E-02 
S    1    1.000000
   8.73771000E+01    2.40001000E-01 
S    1    1.000000
   2.56789000E+01    5.94797000E-01 
S    1    1.000000
   3.74004000E+00    2.80802000E-01 
SP   3    1.000000
   4.21175000E+01    1.13889000E-01   3.65114000E-02 
   9.62837000E+00    9.20811000E-01   2.37153000E-01 
   2.85332000E+00   -3.27447000E-03   8.19702000E-01 
SP   1    1.000000
   9.05661000E-01    1.00000000E+00   1.00000000E+00 
SP   1    1.000000
   2.55611000E-01    1.00000000E+00   1.00000000E+00 
SP   1    1.000000
   8.45000000E-02    1.00000000E+00   1.00000000E+00 
SP   1    1.000000
   2.54518072E-02    1.00000000E+00   1.00000000E+00 
D    1    1.000000
   1.29200000E+00    1.00000000E+00 

9    0
S    1    1.000000
   6.29348000E+03    1.96979000E-03 
S    1    1.000000
   9.49044000E+02    1.49613000E-02 
S    1    1.000000
   2.18776000E+02    7.35006000E-02 
S    1    1.000000
   6.36916000E+01    2.48937000E-01 
S    1    1.000000
   1.88282000E+01    6.02460000E-01 
S    1    1.000000
   2.72023000E+00    2.56202000E-01 
SP   3    1.000000
   3.06331000E+01    1.11906000E-01   3.83119000E-02 
   7.02614000E+00    9.21666000E-01   2.37403000E-01 
   2.11205000E+00   -2.56919000E-03   8.17592000E-01 
SP   1    1.000000
   6.84009000E-01    1.00000000E+00   1.00000000E+00 
SP   1    1.000000
   2.00878000E-01    1.00000000E+00   1.00000000E+00 
SP   1    1.000000
   6.39000000E-02    1.00000000E+00   1.00000000E+00 
SP   1    1.000000
   1.92469880E-02    1.00000000E+00   1.00000000E+00 
D    1    1.000000
   9.13000000E-01    1.00000000E+00 

10    0
S    1    1.000000
   6.29348000E+03    1.96979000E-03 
S    1    1.000000
   9.49044000E+02    1.49613000E-02 
S    1    1.000000
   2.18776000E+02    7.35006000E-02 
S    1    1.000000
   6.36916000E+01    2.48937000E-01 
S    1    1.000000
   1.88282000E+01    6.02460000E-01 
S    1    1.000000
   2.72023000E+00    2.56202000E-01 
SP   3    1.000000
   3.06331000E+01    1.11906000E-01   3.83119000E-02 
   7.02614000E+00    9.21666000E-01   2.37403000E-01 
   2.11205000E+00   -2.56919000E-03   8.17592000E-01 
SP   1    1.000000
   6.84009000E-01    1.00000000E+00   1.00000000E+00 
SP   1    1.000000
   2.00878000E-01    1.00000000E+00   1.00000000E+00 
SP   1    1.000000
   6.39000000E-02    1.00000000E+00   1.00000000E+00 
SP   1    1.000000
   1.92469880E-02    1.00000000E+00   1.00000000E+00 
D    1    1.000000
   9.13000000E-01    1.00000000E+00 

11    0
S    1    1.000000
   4.56324000E+03    1.96665000E-03 
S    1    1.000000
   6.82024000E+02    1.52306000E-02 
S    1    1.000000
   1.54973000E+02    7.61269000E-02 
S    1    1.000000
   4.44553000E+01    2.60801000E-01 
S    1    1.000000
   1.30290000E+01    6.16462000E-01 
S    1    1.000000
   1.82773000E+00    2.21006000E-01 
SP   3    1.000000
   2.09642000E+01    1.14660000E-01   4.02487000E-02 
   4.80331000E+00    9.19999000E-01   2.37594000E-01 
   1.45933000E+00   -3.03068000E-03   8.15854000E-01 
SP   1    1.000000
   4.83456000E-01    1.00000000E+00   1.00000000E+00 
SP   1    1.000000
   1.45585000E-01    1.00000000E+00   1.00000000E+00 
SP   1    1.000000
   4.38000000E-02    1.00000000E+00   1.00000000E+00 
SP   1    1.000000
   1.31927711E-02    1.00000000E+00   1.00000000E+00 
D    1    1.000000
   6.26000000E-01    1.00000000E+00 

12    0
S    3    1.000000
   3.38650000E+01    2.54938000E-02 
   5.09479000E+00    1.90373000E-01 
   1.15879000E+00    8.52161000E-01 
S    1    1.000000
   3.25840000E-01    1.00000000E+00 
S    1    1.000000
   1.02741000E-01    1.00000000E+00 
S    1    1.000000
   3.60000000E-02    1.00000000E+00 
P    1    1.000000
   7.50000000E-01    1.00000000E+00 

[MO]
Sym=X
Ene=0.52146
Spin=Alpha
Occup=1
1    2.05122451e-05
2    0.000158835852
3    0.000792070103
4    0.00272046322
5    0.00641614844
6    0.00229293811
7    0.00863033778
8    -3.80811465e-05
9    -8.93110601e-06
10    6.96549277e-16
11    0.000146227718
12    0.000135761036
13    9.97745421e-05
14    -2.15373569e-15
15    -4.97103106e-05
16    -9.81764359e-05
17    0.00012357581
18    4.32541411e-15
19    -0.00173314153
20    -3.48874381e-05
21    -0.000608473581
22    -2.85034271e-14
23    2.02859405e-05
24    9.75515166e-05
25    -0.000213063902
26    -5.64348634e-14
27    8.02688252e-05
28    8.62209023e-16
29    -4.03485184e-06
30    -1.28213768e-15
31    1.3814831e-05
32    1.09659858e-05
33    -3.79822491e-05
34    0.00021390956
35    0.000321146979
36    2.13611381e-06
37    -4.289233e-06
38    1.17296336e-15
39    6.63127662e-06
40    9.79073233e-05
41    -3.2706629e-05
42    -1.68476013e-05
43    1.71681538e-05
44    2.49197319e-05
45    1.73928307e-16
46    3.46670909e-05
47    5.04857754e-05
48    0.000136283709
49    -0.000229231024
50    -1.21368441e-05
51    -4.13322826e-05
52    7.85673058e-16
53    -2.83555611e-07
54    -2.16544413e-06
55    -1.10134976e-05
56    -3.70003155e-05
57    -9.57066215e-05
58    -7.13740958e-05
59    -9.68631313e-05
60    -1.78529419e-05
61    -1.0699558e-06
62    2.49341959e-15
63    7.55400636e-05
64    5.24388612e-05
65    5.47099544e-07
66    7.0671412e-15
67    -3.62604587e-05
68    -0.000487365137
69    0.000234191633
70    3.93496974e-15
71    0.00058800743
72    -0.000135490986
73    -0.000250044457
74    -1.87032256e-14
75    -0.000468343621
76    -0.000182362292
77    -5.75658024e-05
78    -8.72570415e-15
79    5.14013537e-06
80    3.28126033e-16
81    2.16356923e-06
82    -1.12596947e-16
83    4.25145461e-05
84    -1.67850633e-09
85    6.89948407e-10
86    -9.42976165e-08
87    4.45538599e-08
88    -3.40207643e-06
89    -1.32465513e-05
90    7.0468979e-06
91    -1.21198919e-06
92    9.62780297e-07
93    1.6863209e-15
94    3.78393707e-05
95    2.01801455e-05
96    -1.94803347e-06
97    3.21664211e-15
98    -0.000182087401
99    -8.53142554e-05
100    6.58777529e-05
101    2.97115646e-15
102    -0.000783179452
103    -0.000238549495
104    6.39285954e-05
105    9.67551298e-15
106    -0.000238560997
107    4.46085175e-05
108    0.000209341301
109    -1.17076678e-14
110    5.01813287e-06
111    2.32193996e-16
112    1.41445581e-06
113    5.89046326e-16
114    4.99302824e-06
115    0.00110934553
116    0.00858798728
117    0.0428418288
118    0.147083731
119    0.347487308
120    0.126422406
121    0.465393652
122    -0.000739718495
123    0.000492394925
124    -5.89966402e-16
125    0.00162716683
126    0.00080457199
127    -0.000243680078
128    -1.95013931e-16
129    0.00153223293
130    -0.000293960424
131    0.000409754053
132    -2.21775316e-15
133    -0.00234994948
134    0.000156767196
135    0.0024178978
136    -3.51897695e-14
137    -0.00025794891
138    -0.000293876863
139    4.38740026e-05
140    -5.6576867e-15
141    0.000335464531
142    2.60933589e-16
143    -0.00025446943
144    -1.37455436e-15
145    -4.98452219e-05
146    -3.61829377e-07
147    -2.64869384e-06
148    -1.39228636e-05
149    -4.43830707e-05
150    -0.000134709165
151    -0.000192711743
152    -0.000186063058
153    -0.000205160356
154    -0.000137210058
155    -3.28060252e-16
156    0.000641950577
157    -0.000558594215
158    -0.000372124176
159    -2.23557403e-15
160    -0.000262508023
161    0.000228775498
162    0.000115203738
163    -3.20107875e-15
164    -0.000366139609
165    -7.11273904e-05
166    -0.000189056093
167    5.00335149e-15
168    -0.00220889858
169    0.000591902923
170    6.363541e-05
171    -1.24890666e-14
172    0.000256596951
173    1.67361135e-16
174    -0.000114611218
175    1.12974716e-16
176    0.00011396792
177    -2.49674383e-07
178    -1.71619653e-06
179    -9.84586934e-06
180    -2.83704601e-05
181    -0.000117345889
182    -0.000258902911
183    -3.3577971e-05
184    4.49383169e-05
185    -3.85764168e-05
186    7.27014472e-16
187    0.000571365851
188    0.000694294824
189    -0.000329411641
190    5.81389635e-15
191    5.15769102e-05
192    -0.000162247722
193    -0.000156120557
194    -3.46179705e-15
195    -0.00125159501
196    -0.00101153263
197    -2.66995918e-05
198    2.52935748e-14
199    0.000446978568
200    0.000644224742
201    8.96347436e-05
202    1.00218714e-14
203    -0.000268311921
204    -1.79459664e-16
205    -0.000123750074
206    -7.14182132e-16
207    0.000216042075
208    -3.72777401e-09
209    1.32626095e-08
210    -2.36466735e-07
211    3.48729741e-07
212    -9.70434228e-06
213    -4.09162807e-05
214    2.24056151e-05
215    -5.75178369e-06
216    -2.43377812e-06
217    8.08120438e-16
218    8.20770483e-05
219    4.11947105e-05
220    7.66660909e-07
221    3.87601661e-15
222    -1.33056009e-05
223    -2.68790117e-05
224    3.72123923e-05
225    3.92685668e-16
226    8.89688508e-05
227    0.000447029589
228    8.41679574e-05
229    1.21547583e-14
230    0.000722956699
231    -2.84277141e-05
232    0.000352280934
233    4.35328875e-14
234    -1.53605654e-05
235    9.67713352e-16
236    -6.25715348e-06
237    -2.05864881e-16
238    -1.127673e-07
239    -9.44324298e-07
240    -7.35535711e-06
241    -3.64601619e-05
242    -0.000126673659
243    -0.000292050552
244    -0.000142960228
245    -0.000444762203
246    -3.84642163e-06
247    8.74317428e-05
248    -8.24363861e-16
249    0.000292769062
250    6.98706013e-05
251    0.000487600403
252    -1.48643294e-15
253    -0.00021859904
254    6.32085128e-05
255    -0.000279201787
256    -3.74698876e-15
257    0.00603261789
258    -0.000262009825
259    0.00141606582
260    2.41506031e-14
261    0.000618095629
262    9.50989786e-05
263    0.000362853209
264    2.99972056e-14
265    3.8093991e-05
266    1.98862306e-16
267    -2.09134272e-05
268    -3.75779088e-16
269    -0.00028088962
270    2.44722904e-05
271    9.01912625e-05
272    -0.000187066659
273    0.00026061558
274    -3.73595513e-05
275    7.13933682e-05
276    -8.79134966e-16
[5D]