[Molden Format]
[Atoms] (Angs)
  C      1    6     -0.00714236     -1.70213747     -0.00000000
  H      2    1     -2.06882847     -1.44022412      0.00000000
  H      3    1     -0.12337987     -2.77567521      0.00000000
  H      4    1      0.04651892      1.98813947     -0.00000000
  C      5    6     -1.21953563      0.40211669      0.00000000
  O      6    8     -2.25921553      1.03043814      0.00000000
  C      7    6      1.28797806      0.34644937     -0.00000000
  O      8    8      2.31273661      1.00537216     -0.00000000
  N      9    7      0.03446295      0.97739857     -0.00000000
  N     10    7     -1.17287765     -0.98229824      0.00000000
  C     11    6      1.20107039     -1.10433419     -0.00000000
  H     12    1      2.11220096     -1.67699125     -0.00000000
[GTO]
1    0
S    1    1.000000
   4.56324000E+03    1.96665000E-03 
S    1    1.000000
   6.82024000E+02    1.52306000E-02 
S    1    1.000000
   1.54973000E+02    7.61269000E-02 
S    1    1.000000
   4.44553000E+01    2.60801000E-01 
S    1    1.000000
   1.30290000E+01    6.16462000E-01 
S    1    1.000000
   1.82773000E+00    2.21006000E-01 
SP   3    1.000000
   2.09642000E+01    1.14660000E-01   4.02487000E-02 
   4.80331000E+00    9.19999000E-01   2.37594000E-01 
   1.45933000E+00   -3.03068000E-03   8.15854000E-01 
SP   1    1.000000
   4.83456000E-01    1.00000000E+00   1.00000000E+00 
SP   1    1.000000
   1.45585000E-01    1.00000000E+00   1.00000000E+00 
SP   1    1.000000
   4.38000000E-02    1.00000000E+00   1.00000000E+00 
SP   1    1.000000
   1.31927711E-02    1.00000000E+00   1.00000000E+00 
D    1    1.000000
   6.26000000E-01    1.00000000E+00 

2    0
S    3    1.000000
   3.38650000E+01    2.54938000E-02 
   5.09479000E+00    1.90373000E-01 
   1.15879000E+00    8.52161000E-01 
S    1    1.000000
   3.25840000E-01    1.00000000E+00 
S    1    1.000000
   1.02741000E-01    1.00000000E+00 
S    1    1.000000
   3.60000000E-02    1.00000000E+00 
P    1    1.000000
   7.50000000E-01    1.00000000E+00 

3    0
S    3    1.000000
   3.38650000E+01    2.54938000E-02 
   5.09479000E+00    1.90373000E-01 
   1.15879000E+00    8.52161000E-01 
S    1    1.000000
   3.25840000E-01    1.00000000E+00 
S    1    1.000000
   1.02741000E-01    1.00000000E+00 
S    1    1.000000
   3.60000000E-02    1.00000000E+00 
P    1    1.000000
   7.50000000E-01    1.00000000E+00 

4    0
S    3    1.000000
   3.38650000E+01    2.54938000E-02 
   5.09479000E+00    1.90373000E-01 
   1.15879000E+00    8.52161000E-01 
S    1    1.000000
   3.25840000E-01    1.00000000E+00 
S    1    1.000000
   1.02741000E-01    1.00000000E+00 
S    1    1.000000
   3.60000000E-02    1.00000000E+00 
P    1    1.000000
   7.50000000E-01    1.00000000E+00 

5    0
S    1    1.000000
   4.56324000E+03    1.96665000E-03 
S    1    1.000000
   6.82024000E+02    1.52306000E-02 
S    1    1.000000
   1.54973000E+02    7.61269000E-02 
S    1    1.000000
   4.44553000E+01    2.60801000E-01 
S    1    1.000000
   1.30290000E+01    6.16462000E-01 
S    1    1.000000
   1.82773000E+00    2.21006000E-01 
SP   3    1.000000
   2.09642000E+01    1.14660000E-01   4.02487000E-02 
   4.80331000E+00    9.19999000E-01   2.37594000E-01 
   1.45933000E+00   -3.03068000E-03   8.15854000E-01 
SP   1    1.000000
   4.83456000E-01    1.00000000E+00   1.00000000E+00 
SP   1    1.000000
   1.45585000E-01    1.00000000E+00   1.00000000E+00 
SP   1    1.000000
   4.38000000E-02    1.00000000E+00   1.00000000E+00 
SP   1    1.000000
   1.31927711E-02    1.00000000E+00   1.00000000E+00 
D    1    1.000000
   6.26000000E-01    1.00000000E+00 

6    0
S    1    1.000000
   8.58850000E+03    1.89515000E-03 
S    1    1.000000
   1.29723000E+03    1.43859000E-02 
S    1    1.000000
   2.99296000E+02    7.07320000E-02 
S    1    1.000000
   8.73771000E+01    2.40001000E-01 
S    1    1.000000
   2.56789000E+01    5.94797000E-01 
S    1    1.000000
   3.74004000E+00    2.80802000E-01 
SP   3    1.000000
   4.21175000E+01    1.13889000E-01   3.65114000E-02 
   9.62837000E+00    9.20811000E-01   2.37153000E-01 
   2.85332000E+00   -3.27447000E-03   8.19702000E-01 
SP   1    1.000000
   9.05661000E-01    1.00000000E+00   1.00000000E+00 
SP   1    1.000000
   2.55611000E-01    1.00000000E+00   1.00000000E+00 
SP   1    1.000000
   8.45000000E-02    1.00000000E+00   1.00000000E+00 
SP   1    1.000000
   2.54518072E-02    1.00000000E+00   1.00000000E+00 
D    1    1.000000
   1.29200000E+00    1.00000000E+00 

7    0
S    1    1.000000
   4.56324000E+03    1.96665000E-03 
S    1    1.000000
   6.82024000E+02    1.52306000E-02 
S    1    1.000000
   1.54973000E+02    7.61269000E-02 
S    1    1.000000
   4.44553000E+01    2.60801000E-01 
S    1    1.000000
   1.30290000E+01    6.16462000E-01 
S    1    1.000000
   1.82773000E+00    2.21006000E-01 
SP   3    1.000000
   2.09642000E+01    1.14660000E-01   4.02487000E-02 
   4.80331000E+00    9.19999000E-01   2.37594000E-01 
   1.45933000E+00   -3.03068000E-03   8.15854000E-01 
SP   1    1.000000
   4.83456000E-01    1.00000000E+00   1.00000000E+00 
SP   1    1.000000
   1.45585000E-01    1.00000000E+00   1.00000000E+00 
SP   1    1.000000
   4.38000000E-02    1.00000000E+00   1.00000000E+00 
SP   1    1.000000
   1.31927711E-02    1.00000000E+00   1.00000000E+00 
D    1    1.000000
   6.26000000E-01    1.00000000E+00 

8    0
S    1    1.000000
   8.58850000E+03    1.89515000E-03 
S    1    1.000000
   1.29723000E+03    1.43859000E-02 
S    1    1.000000
   2.99296000E+02    7.07320000E-02 
S    1    1.000000
   8.73771000E+01    2.40001000E-01 
S    1    1.000000
   2.56789000E+01    5.94797000E-01 
S    1    1.000000
   3.74004000E+00    2.80802000E-01 
SP   3    1.000000
   4.21175000E+01    1.13889000E-01   3.65114000E-02 
   9.62837000E+00    9.20811000E-01   2.37153000E-01 
   2.85332000E+00   -3.27447000E-03   8.19702000E-01 
SP   1    1.000000
   9.05661000E-01    1.00000000E+00   1.00000000E+00 
SP   1    1.000000
   2.55611000E-01    1.00000000E+00   1.00000000E+00 
SP   1    1.000000
   8.45000000E-02    1.00000000E+00   1.00000000E+00 
SP   1    1.000000
   2.54518072E-02    1.00000000E+00   1.00000000E+00 
D    1    1.000000
   1.29200000E+00    1.00000000E+00 

9    0
S    1    1.000000
   6.29348000E+03    1.96979000E-03 
S    1    1.000000
   9.49044000E+02    1.49613000E-02 
S    1    1.000000
   2.18776000E+02    7.35006000E-02 
S    1    1.000000
   6.36916000E+01    2.48937000E-01 
S    1    1.000000
   1.88282000E+01    6.02460000E-01 
S    1    1.000000
   2.72023000E+00    2.56202000E-01 
SP   3    1.000000
   3.06331000E+01    1.11906000E-01   3.83119000E-02 
   7.02614000E+00    9.21666000E-01   2.37403000E-01 
   2.11205000E+00   -2.56919000E-03   8.17592000E-01 
SP   1    1.000000
   6.84009000E-01    1.00000000E+00   1.00000000E+00 
SP   1    1.000000
   2.00878000E-01    1.00000000E+00   1.00000000E+00 
SP   1    1.000000
   6.39000000E-02    1.00000000E+00   1.00000000E+00 
SP   1    1.000000
   1.92469880E-02    1.00000000E+00   1.00000000E+00 
D    1    1.000000
   9.13000000E-01    1.00000000E+00 

10    0
S    1    1.000000
   6.29348000E+03    1.96979000E-03 
S    1    1.000000
   9.49044000E+02    1.49613000E-02 
S    1    1.000000
   2.18776000E+02    7.35006000E-02 
S    1    1.000000
   6.36916000E+01    2.48937000E-01 
S    1    1.000000
   1.88282000E+01    6.02460000E-01 
S    1    1.000000
   2.72023000E+00    2.56202000E-01 
SP   3    1.000000
   3.06331000E+01    1.11906000E-01   3.83119000E-02 
   7.02614000E+00    9.21666000E-01   2.37403000E-01 
   2.11205000E+00   -2.56919000E-03   8.17592000E-01 
SP   1    1.000000
   6.84009000E-01    1.00000000E+00   1.00000000E+00 
SP   1    1.000000
   2.00878000E-01    1.00000000E+00   1.00000000E+00 
SP   1    1.000000
   6.39000000E-02    1.00000000E+00   1.00000000E+00 
SP   1    1.000000
   1.92469880E-02    1.00000000E+00   1.00000000E+00 
D    1    1.000000
   9.13000000E-01    1.00000000E+00 

11    0
S    1    1.000000
   4.56324000E+03    1.96665000E-03 
S    1    1.000000
   6.82024000E+02    1.52306000E-02 
S    1    1.000000
   1.54973000E+02    7.61269000E-02 
S    1    1.000000
   4.44553000E+01    2.60801000E-01 
S    1    1.000000
   1.30290000E+01    6.16462000E-01 
S    1    1.000000
   1.82773000E+00    2.21006000E-01 
SP   3    1.000000
   2.09642000E+01    1.14660000E-01   4.02487000E-02 
   4.80331000E+00    9.19999000E-01   2.37594000E-01 
   1.45933000E+00   -3.03068000E-03   8.15854000E-01 
SP   1    1.000000
   4.83456000E-01    1.00000000E+00   1.00000000E+00 
SP   1    1.000000
   1.45585000E-01    1.00000000E+00   1.00000000E+00 
SP   1    1.000000
   4.38000000E-02    1.00000000E+00   1.00000000E+00 
SP   1    1.000000
   1.31927711E-02    1.00000000E+00   1.00000000E+00 
D    1    1.000000
   6.26000000E-01    1.00000000E+00 

12    0
S    3    1.000000
   3.38650000E+01    2.54938000E-02 
   5.09479000E+00    1.90373000E-01 
   1.15879000E+00    8.52161000E-01 
S    1    1.000000
   3.25840000E-01    1.00000000E+00 
S    1    1.000000
   1.02741000E-01    1.00000000E+00 
S    1    1.000000
   3.60000000E-02    1.00000000E+00 
P    1    1.000000
   7.50000000E-01    1.00000000E+00 

[MO]
Sym=X
Ene=0.113183
Spin=Alpha
Occup=1
1    8.91538835e-06
2    6.89404119e-05
3    0.000344324665
4    0.00117971985
5    0.00280535827
6    0.00098322128
7    0.00363880215
8    0.000126588725
9    7.81442603e-05
10    2.52961667e-15
11    0.000518577931
12    0.00056893298
13    0.000298003642
14    2.23535912e-15
15    -0.000983445489
16    -0.000291297765
17    -0.000607443662
18    3.39671951e-15
19    -0.00255817247
20    -0.000140357683
21    -0.00136415422
22    6.40908397e-14
23    -0.000222626784
24    3.09925057e-06
25    -0.000258612724
26    -6.69339179e-14
27    0.000299476343
28    -2.99658762e-16
29    -2.48567471e-05
30    1.62267165e-15
31    0.000210382124
32    7.25730883e-06
33    5.77483876e-05
34    9.700506e-05
35    0.000311510814
36    1.56907602e-05
37    -4.58775221e-06
38    -3.07456011e-16
39    3.20826627e-05
40    7.0248659e-05
41    -0.000408102404
42    -0.000688909368
43    5.88338086e-05
44    7.08822632e-05
45    1.20136071e-15
46    1.29248209e-05
47    3.89581994e-05
48    2.83231766e-05
49    0.000258449076
50    5.91135106e-06
51    -4.52644477e-06
52    -2.56780103e-15
53    -1.81943919e-08
54    -1.15336086e-07
55    -7.59472232e-07
56    -1.89147446e-06
57    -1.12071665e-05
58    -3.03878272e-05
59    8.75059423e-06
60    -4.0324982e-06
61    4.5493444e-06
62    -3.85186865e-15
63    7.37780049e-05
64    1.02747386e-05
65    -1.62854237e-05
66    -1.06863661e-14
67    -0.000603017827
68    -0.000494177174
69    0.000269321642
70    -6.41316618e-15
71    9.42303241e-05
72    -0.000210372169
73    -8.00635929e-05
74    7.85560266e-14
75    9.19631024e-05
76    -6.86984857e-05
77    4.59422352e-05
78    6.63753847e-14
79    3.34160723e-06
80    -1.65002135e-15
81    9.57695948e-06
82    4.26122902e-16
83    7.88322872e-07
84    -9.94403546e-12
85    8.42507099e-09
86    -1.99261212e-08
87    1.61106732e-07
88    -1.85100379e-06
89    -8.46372037e-06
90    5.23498511e-06
91    -2.67953099e-06
92    7.23508501e-07
93    -3.42097585e-15
94    2.22834114e-05
95    1.3598485e-05
96    -5.44317044e-06
97    -4.86068332e-15
98    -0.000103282732
99    -4.94982511e-05
100    2.67219126e-05
101    -7.62935788e-15
102    -0.000567406142
103    -0.000134753248
104    8.89420042e-05
105    -1.49714967e-14
106    -0.000136791184
107    5.00286978e-05
108    0.000108796193
109    -3.18573892e-14
110    -4.21677087e-07
111    4.57354387e-16
112    1.20307553e-06
113    -7.06048359e-16
114    1.08721885e-06
115    -3.412372e-06
116    -2.63896029e-05
117    -0.000131946688
118    -0.00045249138
119    -0.00108137182
120    -0.000521375131
121    -0.00143735232
122    -4.38052259e-06
123    -8.06076668e-05
124    -2.37199431e-17
125    0.000551727425
126    -3.83364515e-05
127    -0.000636683641
128    4.06258134e-15
129    -0.000611906008
130    0.000518301366
131    0.000915972371
132    -3.99782587e-15
133    -0.00187096701
134    0.000790792596
135    0.00106136538
136    8.12007891e-14
137    -0.000308973578
138    -6.65135292e-05
139    4.42877898e-07
140    -4.01971802e-14
141    5.83479837e-05
142    -8.70915472e-16
143    -7.20559405e-05
144    2.60101414e-15
145    -0.000353781355
146    1.21147456e-08
147    1.28339863e-07
148    3.73331524e-07
149    2.23420007e-06
150    -4.20014115e-06
151    -3.43109189e-05
152    3.03003157e-05
153    8.15018008e-06
154    2.390335e-05
155    1.92098633e-15
156    7.20094743e-05
157    -4.38013443e-05
158    -4.24049795e-05
159    9.51520579e-16
160    -0.000194990003
161    0.000125959179
162    1.61725924e-06
163    6.65124774e-15
164    -0.000840359569
165    0.000118916806
166    4.83420378e-05
167    -5.73985594e-15
168    -0.00182240601
169    0.000362739751
170    0.000102954628
171    4.92352736e-15
172    2.77193708e-05
173    -8.74251722e-17
174    -1.34622163e-06
175    -1.78441358e-16
176    -2.53399112e-05
177    2.21443129e-08
178    2.13118149e-07
179    7.2915696e-07
180    3.6945107e-06
181    -2.51801656e-06
182    -4.02696046e-05
183    3.86970327e-05
184    -2.4077531e-05
185    1.43524093e-05
186    -9.88258601e-16
187    5.00080558e-05
188    8.67970492e-05
189    -3.79348063e-05
190    -1.0608529e-14
191    0.000289935669
192    -0.000196427001
193    -0.000220676102
194    1.20747024e-14
195    0.000661212252
196    -0.000251554799
197    -0.000308554782
198    -6.34665455e-14
199    0.000736952339
200    0.000586580328
201    -0.000197050974
202    -4.16667495e-14
203    -3.42247175e-05
204    1.40006947e-16
205    -4.40225161e-06
206    1.45551784e-15
207    1.61534139e-05
208    -8.80571806e-09
209    -1.66831229e-08
210    -4.41130046e-07
211    -1.11170357e-07
212    -1.31274843e-05
213    -4.92900243e-05
214    2.77855347e-05
215    -2.61750154e-05
216    8.21037057e-06
217    1.20167552e-15
218    6.42037894e-05
219    0.000101945416
220    -4.67515145e-05
221    -6.41499726e-15
222    0.000300077351
223    0.000155479754
224    0.000190187381
225    1.07567173e-14
226    0.000972226636
227    0.000414943779
228    0.000269383197
229    -5.80512218e-14
230    0.000559907979
231    4.28395564e-05
232    0.000225691726
233    -1.15164352e-14
234    -2.9505124e-05
235    -1.3847204e-15
236    -1.28406598e-05
237    6.25042833e-16
238    4.19421407e-05
239    0.00110909689
240    0.00858633805
241    0.0428312187
242    0.147060404
243    0.347386776
244    0.127049103
245    0.465013221
246    -0.000183374652
247    0.000231057951
248    3.52444433e-15
249    0.00182515966
250    -4.34654952e-05
251    -0.000149985334
252    1.49455368e-15
253    0.00185349873
254    -0.00078979797
255    0.000603978452
256    1.53466299e-14
257    0.00463131902
258    -0.00101566113
259    0.00100595452
260    -7.29819367e-14
261    0.000261877779
262    9.41934913e-05
263    0.000221656681
264    8.52907806e-14
265    6.86059206e-05
266    1.61971287e-17
267    -9.48499724e-05
268    -2.15128642e-16
269    8.59344583e-05
270    0.000378648818
271    0.000450728252
272    0.000281733856
273    0.000469024248
274    -0.000267234321
275    0.000153114049
276    1.53871029e-15
[5D]