[Molden Format]
[Atoms] (Angs)
  C      1    6     -0.00714236     -1.70213747     -0.00000000
  H      2    1     -2.06882847     -1.44022412      0.00000000
  H      3    1     -0.12337987     -2.77567521      0.00000000
  H      4    1      0.04651892      1.98813947     -0.00000000
  C      5    6     -1.21953563      0.40211669      0.00000000
  O      6    8     -2.25921553      1.03043814      0.00000000
  C      7    6      1.28797806      0.34644937     -0.00000000
  O      8    8      2.31273661      1.00537216     -0.00000000
  N      9    7      0.03446295      0.97739857     -0.00000000
  N     10    7     -1.17287765     -0.98229824      0.00000000
  C     11    6      1.20107039     -1.10433419     -0.00000000
  H     12    1      2.11220096     -1.67699125     -0.00000000
[GTO]
1    0
S    1    1.000000
   4.56324000E+03    1.96665000E-03 
S    1    1.000000
   6.82024000E+02    1.52306000E-02 
S    1    1.000000
   1.54973000E+02    7.61269000E-02 
S    1    1.000000
   4.44553000E+01    2.60801000E-01 
S    1    1.000000
   1.30290000E+01    6.16462000E-01 
S    1    1.000000
   1.82773000E+00    2.21006000E-01 
SP   3    1.000000
   2.09642000E+01    1.14660000E-01   4.02487000E-02 
   4.80331000E+00    9.19999000E-01   2.37594000E-01 
   1.45933000E+00   -3.03068000E-03   8.15854000E-01 
SP   1    1.000000
   4.83456000E-01    1.00000000E+00   1.00000000E+00 
SP   1    1.000000
   1.45585000E-01    1.00000000E+00   1.00000000E+00 
SP   1    1.000000
   4.38000000E-02    1.00000000E+00   1.00000000E+00 
SP   1    1.000000
   1.31927711E-02    1.00000000E+00   1.00000000E+00 
D    1    1.000000
   6.26000000E-01    1.00000000E+00 

2    0
S    3    1.000000
   3.38650000E+01    2.54938000E-02 
   5.09479000E+00    1.90373000E-01 
   1.15879000E+00    8.52161000E-01 
S    1    1.000000
   3.25840000E-01    1.00000000E+00 
S    1    1.000000
   1.02741000E-01    1.00000000E+00 
S    1    1.000000
   3.60000000E-02    1.00000000E+00 
P    1    1.000000
   7.50000000E-01    1.00000000E+00 

3    0
S    3    1.000000
   3.38650000E+01    2.54938000E-02 
   5.09479000E+00    1.90373000E-01 
   1.15879000E+00    8.52161000E-01 
S    1    1.000000
   3.25840000E-01    1.00000000E+00 
S    1    1.000000
   1.02741000E-01    1.00000000E+00 
S    1    1.000000
   3.60000000E-02    1.00000000E+00 
P    1    1.000000
   7.50000000E-01    1.00000000E+00 

4    0
S    3    1.000000
   3.38650000E+01    2.54938000E-02 
   5.09479000E+00    1.90373000E-01 
   1.15879000E+00    8.52161000E-01 
S    1    1.000000
   3.25840000E-01    1.00000000E+00 
S    1    1.000000
   1.02741000E-01    1.00000000E+00 
S    1    1.000000
   3.60000000E-02    1.00000000E+00 
P    1    1.000000
   7.50000000E-01    1.00000000E+00 

5    0
S    1    1.000000
   4.56324000E+03    1.96665000E-03 
S    1    1.000000
   6.82024000E+02    1.52306000E-02 
S    1    1.000000
   1.54973000E+02    7.61269000E-02 
S    1    1.000000
   4.44553000E+01    2.60801000E-01 
S    1    1.000000
   1.30290000E+01    6.16462000E-01 
S    1    1.000000
   1.82773000E+00    2.21006000E-01 
SP   3    1.000000
   2.09642000E+01    1.14660000E-01   4.02487000E-02 
   4.80331000E+00    9.19999000E-01   2.37594000E-01 
   1.45933000E+00   -3.03068000E-03   8.15854000E-01 
SP   1    1.000000
   4.83456000E-01    1.00000000E+00   1.00000000E+00 
SP   1    1.000000
   1.45585000E-01    1.00000000E+00   1.00000000E+00 
SP   1    1.000000
   4.38000000E-02    1.00000000E+00   1.00000000E+00 
SP   1    1.000000
   1.31927711E-02    1.00000000E+00   1.00000000E+00 
D    1    1.000000
   6.26000000E-01    1.00000000E+00 

6    0
S    1    1.000000
   8.58850000E+03    1.89515000E-03 
S    1    1.000000
   1.29723000E+03    1.43859000E-02 
S    1    1.000000
   2.99296000E+02    7.07320000E-02 
S    1    1.000000
   8.73771000E+01    2.40001000E-01 
S    1    1.000000
   2.56789000E+01    5.94797000E-01 
S    1    1.000000
   3.74004000E+00    2.80802000E-01 
SP   3    1.000000
   4.21175000E+01    1.13889000E-01   3.65114000E-02 
   9.62837000E+00    9.20811000E-01   2.37153000E-01 
   2.85332000E+00   -3.27447000E-03   8.19702000E-01 
SP   1    1.000000
   9.05661000E-01    1.00000000E+00   1.00000000E+00 
SP   1    1.000000
   2.55611000E-01    1.00000000E+00   1.00000000E+00 
SP   1    1.000000
   8.45000000E-02    1.00000000E+00   1.00000000E+00 
SP   1    1.000000
   2.54518072E-02    1.00000000E+00   1.00000000E+00 
D    1    1.000000
   1.29200000E+00    1.00000000E+00 

7    0
S    1    1.000000
   4.56324000E+03    1.96665000E-03 
S    1    1.000000
   6.82024000E+02    1.52306000E-02 
S    1    1.000000
   1.54973000E+02    7.61269000E-02 
S    1    1.000000
   4.44553000E+01    2.60801000E-01 
S    1    1.000000
   1.30290000E+01    6.16462000E-01 
S    1    1.000000
   1.82773000E+00    2.21006000E-01 
SP   3    1.000000
   2.09642000E+01    1.14660000E-01   4.02487000E-02 
   4.80331000E+00    9.19999000E-01   2.37594000E-01 
   1.45933000E+00   -3.03068000E-03   8.15854000E-01 
SP   1    1.000000
   4.83456000E-01    1.00000000E+00   1.00000000E+00 
SP   1    1.000000
   1.45585000E-01    1.00000000E+00   1.00000000E+00 
SP   1    1.000000
   4.38000000E-02    1.00000000E+00   1.00000000E+00 
SP   1    1.000000
   1.31927711E-02    1.00000000E+00   1.00000000E+00 
D    1    1.000000
   6.26000000E-01    1.00000000E+00 

8    0
S    1    1.000000
   8.58850000E+03    1.89515000E-03 
S    1    1.000000
   1.29723000E+03    1.43859000E-02 
S    1    1.000000
   2.99296000E+02    7.07320000E-02 
S    1    1.000000
   8.73771000E+01    2.40001000E-01 
S    1    1.000000
   2.56789000E+01    5.94797000E-01 
S    1    1.000000
   3.74004000E+00    2.80802000E-01 
SP   3    1.000000
   4.21175000E+01    1.13889000E-01   3.65114000E-02 
   9.62837000E+00    9.20811000E-01   2.37153000E-01 
   2.85332000E+00   -3.27447000E-03   8.19702000E-01 
SP   1    1.000000
   9.05661000E-01    1.00000000E+00   1.00000000E+00 
SP   1    1.000000
   2.55611000E-01    1.00000000E+00   1.00000000E+00 
SP   1    1.000000
   8.45000000E-02    1.00000000E+00   1.00000000E+00 
SP   1    1.000000
   2.54518072E-02    1.00000000E+00   1.00000000E+00 
D    1    1.000000
   1.29200000E+00    1.00000000E+00 

9    0
S    1    1.000000
   6.29348000E+03    1.96979000E-03 
S    1    1.000000
   9.49044000E+02    1.49613000E-02 
S    1    1.000000
   2.18776000E+02    7.35006000E-02 
S    1    1.000000
   6.36916000E+01    2.48937000E-01 
S    1    1.000000
   1.88282000E+01    6.02460000E-01 
S    1    1.000000
   2.72023000E+00    2.56202000E-01 
SP   3    1.000000
   3.06331000E+01    1.11906000E-01   3.83119000E-02 
   7.02614000E+00    9.21666000E-01   2.37403000E-01 
   2.11205000E+00   -2.56919000E-03   8.17592000E-01 
SP   1    1.000000
   6.84009000E-01    1.00000000E+00   1.00000000E+00 
SP   1    1.000000
   2.00878000E-01    1.00000000E+00   1.00000000E+00 
SP   1    1.000000
   6.39000000E-02    1.00000000E+00   1.00000000E+00 
SP   1    1.000000
   1.92469880E-02    1.00000000E+00   1.00000000E+00 
D    1    1.000000
   9.13000000E-01    1.00000000E+00 

10    0
S    1    1.000000
   6.29348000E+03    1.96979000E-03 
S    1    1.000000
   9.49044000E+02    1.49613000E-02 
S    1    1.000000
   2.18776000E+02    7.35006000E-02 
S    1    1.000000
   6.36916000E+01    2.48937000E-01 
S    1    1.000000
   1.88282000E+01    6.02460000E-01 
S    1    1.000000
   2.72023000E+00    2.56202000E-01 
SP   3    1.000000
   3.06331000E+01    1.11906000E-01   3.83119000E-02 
   7.02614000E+00    9.21666000E-01   2.37403000E-01 
   2.11205000E+00   -2.56919000E-03   8.17592000E-01 
SP   1    1.000000
   6.84009000E-01    1.00000000E+00   1.00000000E+00 
SP   1    1.000000
   2.00878000E-01    1.00000000E+00   1.00000000E+00 
SP   1    1.000000
   6.39000000E-02    1.00000000E+00   1.00000000E+00 
SP   1    1.000000
   1.92469880E-02    1.00000000E+00   1.00000000E+00 
D    1    1.000000
   9.13000000E-01    1.00000000E+00 

11    0
S    1    1.000000
   4.56324000E+03    1.96665000E-03 
S    1    1.000000
   6.82024000E+02    1.52306000E-02 
S    1    1.000000
   1.54973000E+02    7.61269000E-02 
S    1    1.000000
   4.44553000E+01    2.60801000E-01 
S    1    1.000000
   1.30290000E+01    6.16462000E-01 
S    1    1.000000
   1.82773000E+00    2.21006000E-01 
SP   3    1.000000
   2.09642000E+01    1.14660000E-01   4.02487000E-02 
   4.80331000E+00    9.19999000E-01   2.37594000E-01 
   1.45933000E+00   -3.03068000E-03   8.15854000E-01 
SP   1    1.000000
   4.83456000E-01    1.00000000E+00   1.00000000E+00 
SP   1    1.000000
   1.45585000E-01    1.00000000E+00   1.00000000E+00 
SP   1    1.000000
   4.38000000E-02    1.00000000E+00   1.00000000E+00 
SP   1    1.000000
   1.31927711E-02    1.00000000E+00   1.00000000E+00 
D    1    1.000000
   6.26000000E-01    1.00000000E+00 

12    0
S    3    1.000000
   3.38650000E+01    2.54938000E-02 
   5.09479000E+00    1.90373000E-01 
   1.15879000E+00    8.52161000E-01 
S    1    1.000000
   3.25840000E-01    1.00000000E+00 
S    1    1.000000
   1.02741000E-01    1.00000000E+00 
S    1    1.000000
   3.60000000E-02    1.00000000E+00 
P    1    1.000000
   7.50000000E-01    1.00000000E+00 

[MO]
Sym=X
Ene=0.000235
Spin=Alpha
Occup=1
1    0.00011445952
2    0.000886167432
3    0.00442025064
4    0.0151781542
5    0.0358406503
6    0.0131162885
7    0.0480960842
8    -0.000232646154
9    -3.47102692e-05
10    -6.67838861e-16
11    -0.000321436376
12    -0.000460748968
13    -0.000309529263
14    2.60999666e-15
15    0.00103811465
16    0.000281746004
17    0.000599011241
18    -1.60964887e-15
19    0.0036209069
20    0.000153108968
21    0.00175999621
22    -3.48118719e-14
23    0.000242220406
24    -6.41018553e-05
25    0.000315960243
26    8.4002341e-14
27    -0.000270571209
28    1.47551884e-16
29    -2.37466836e-07
30    5.81437628e-16
31    -0.000189152885
32    -3.92063311e-07
33    -3.38083911e-05
34    -0.000145335516
35    -0.000377652336
36    -2.46065247e-06
37    1.15323582e-05
38    -1.06689449e-15
39    1.46032116e-05
40    -3.99311996e-05
41    0.000412301131
42    0.000825887153
43    -5.65438791e-05
44    -3.55226777e-05
45    -1.49374924e-16
46    -1.52003462e-05
47    -4.9105844e-05
48    -5.96249473e-05
49    -0.000150575235
50    -2.33610931e-06
51    8.13449031e-06
52    1.13261322e-15
53    0.000212020486
54    0.0016413221
55    0.00818811646
56    0.028110583
57    0.0664203435
58    0.0241891073
59    0.0889270644
60    0.000131468837
61    -8.7274769e-05
62    -9.15697578e-16
63    0.00023225733
64    -0.000163828242
65    9.72801274e-05
66    -2.96268181e-16
67    0.000870568996
68    0.000604131386
69    -0.000313805053
70    -1.74127824e-15
71    -0.000265807215
72    6.22721981e-05
73    0.000307440706
74    -6.32012886e-14
75    -2.50411573e-05
76    0.000135575301
77    -3.94897485e-06
78    -5.53221524e-14
79    -5.98522254e-05
80    3.12931479e-16
81    -5.52978311e-05
82    8.85187877e-16
83    1.14117482e-05
84    -7.70528447e-08
85    -5.76912069e-07
86    -2.93117102e-06
87    -9.68433532e-06
88    -2.58423948e-05
89    -2.63896001e-05
90    -4.58780038e-05
91    4.28097179e-05
92    -2.52242228e-05
93    -3.72723085e-16
94    8.9648349e-05
95    8.6566776e-05
96    -5.86416787e-05
97    -1.84017734e-15
98    6.65063422e-05
99    7.66883902e-06
100    -8.28797837e-06
101    -1.74510529e-15
102    0.000672724418
103    0.0002328651
104    -0.000115097657
105    1.8106459e-15
106    -0.00012928416
107    -0.000119615761
108    -0.000137879731
109    3.09402362e-14
110    -4.7151752e-05
111    -5.20788487e-17
112    -2.36870942e-05
113    -2.64247822e-16
114    2.10023588e-05
115    -0.000332308828
116    -0.00257258124
117    -0.0128333066
118    -0.0440592641
119    -0.104081734
120    -0.037758795
121    -0.139398322
122    0.000231978757
123    -7.15086985e-05
124    3.75513925e-15
125    -0.000985111356
126    -0.000221213996
127    0.000653096071
128    3.11884009e-15
129    0.000141503004
130    -0.000340798726
131    -0.000964188173
132    1.16809567e-14
133    0.00306933948
134    -0.000835195034
135    -0.00185216517
136    -3.84095198e-14
137    0.000482148508
138    0.000147779963
139    -4.59689122e-05
140    4.1202417e-14
141    -0.000153331367
142    2.59619286e-16
143    0.000144028457
144    3.27706949e-16
145    0.000345167396
146    3.32054526e-08
147    1.90017039e-07
148    1.43476882e-06
149    3.14639726e-06
150    2.37204548e-05
151    7.82120098e-05
152    1.26129709e-07
153    5.49226056e-05
154    1.98061183e-05
155    1.70910483e-15
156    -0.000255550062
157    0.000204513251
158    0.000149189842
159    4.9297648e-15
160    0.00024743073
161    -0.000174028925
162    -2.60374397e-05
163    4.04699184e-15
164    0.000756055248
165    -4.78528448e-05
166    3.17422135e-05
167    8.23481428e-15
168    0.00234905755
169    -0.000508362865
170    -9.89514078e-05
171    2.69876667e-15
172    -0.000103378957
173    -6.22297687e-16
174    3.58647512e-05
175    -6.32208662e-16
176    -1.06500241e-05
177    -1.11929515e-07
178    -9.19257344e-07
179    -4.01572815e-06
180    -1.54701494e-05
181    -2.00862627e-05
182    5.41067311e-05
183    -8.62035045e-05
184    -5.22422834e-06
185    -9.11746138e-06
186    -4.30288363e-16
187    -0.000106876327
188    -0.000410825001
189    7.53778144e-05
190    4.92154432e-15
191    -0.000296000292
192    0.000262542763
193    0.000251687045
194    -9.20133194e-15
195    -0.0002984561
196    0.000651243608
197    0.000281981569
198    4.02514103e-14
199    -0.000729856698
200    -0.000793417186
201    0.000146439577
202    3.10689518e-14
203    0.000157368058
204    -2.41067866e-16
205    2.23382749e-05
206    4.77142192e-16
207    -3.9992521e-05
208    6.79225234e-08
209    5.04498554e-07
210    2.52550382e-06
211    8.20074144e-06
212    2.23818814e-05
213    2.28996365e-06
214    8.4089483e-06
215    3.53128369e-05
216    3.88969944e-06
217    -2.10313399e-15
218    9.89935071e-05
219    -2.85132761e-05
220    0.000126055071
221    2.25263453e-15
222    -0.000299205905
223    -0.000126736673
224    -0.000210746125
225    -1.15348068e-14
226    -0.00116695392
227    -0.00055439104
228    -0.000277447137
229    4.09678549e-14
230    -0.000789270277
231    -9.53513147e-05
232    -0.000251917448
233    -1.15975252e-14
234    -1.13031697e-05
235    -8.93039566e-17
236    -2.06379637e-05
237    2.59104386e-16
238    -7.81548287e-05
239    -0.00103041266
240    -0.0079771845
241    -0.0397925726
242    -0.136627182
243    -0.322740348
244    -0.118021586
245    -0.432022093
246    0.000155709093
247    -0.000250231971
248    6.12786869e-16
249    -0.00175080489
250    -2.15854738e-05
251    -1.68802595e-05
252    5.14942374e-15
253    -0.00172539791
254    0.000761655975
255    -0.000496707648
256    -2.54508039e-15
257    -0.00702217432
258    0.00119198169
259    -0.00154406886
260    4.97706911e-14
261    -0.000470886333
262    -0.000121174815
263    -0.000335592506
264    -8.47287685e-14
265    -5.15461077e-05
266    4.95331785e-16
267    0.000100721557
268    1.4782709e-16
269    2.29382729e-05
270    -0.000355356147
271    -0.000433582395
272    -0.000245164135
273    -0.000568076659
274    0.000247076885
275    -0.000164221711
276    8.8129757e-16
[5D]