[Molden Format]
[Atoms] (Angs)
  C      1    6     -0.00714236     -1.70213747     -0.00000000
  H      2    1     -2.06882847     -1.44022412      0.00000000
  H      3    1     -0.12337987     -2.77567521      0.00000000
  H      4    1      0.04651892      1.98813947     -0.00000000
  C      5    6     -1.21953563      0.40211669      0.00000000
  O      6    8     -2.25921553      1.03043814      0.00000000
  C      7    6      1.28797806      0.34644937     -0.00000000
  O      8    8      2.31273661      1.00537216     -0.00000000
  N      9    7      0.03446295      0.97739857     -0.00000000
  N     10    7     -1.17287765     -0.98229824      0.00000000
  C     11    6      1.20107039     -1.10433419     -0.00000000
  H     12    1      2.11220096     -1.67699125     -0.00000000
[GTO]
1    0
S    1    1.000000
   4.56324000E+03    1.96665000E-03 
S    1    1.000000
   6.82024000E+02    1.52306000E-02 
S    1    1.000000
   1.54973000E+02    7.61269000E-02 
S    1    1.000000
   4.44553000E+01    2.60801000E-01 
S    1    1.000000
   1.30290000E+01    6.16462000E-01 
S    1    1.000000
   1.82773000E+00    2.21006000E-01 
SP   3    1.000000
   2.09642000E+01    1.14660000E-01   4.02487000E-02 
   4.80331000E+00    9.19999000E-01   2.37594000E-01 
   1.45933000E+00   -3.03068000E-03   8.15854000E-01 
SP   1    1.000000
   4.83456000E-01    1.00000000E+00   1.00000000E+00 
SP   1    1.000000
   1.45585000E-01    1.00000000E+00   1.00000000E+00 
SP   1    1.000000
   4.38000000E-02    1.00000000E+00   1.00000000E+00 
SP   1    1.000000
   1.31927711E-02    1.00000000E+00   1.00000000E+00 
D    1    1.000000
   6.26000000E-01    1.00000000E+00 

2    0
S    3    1.000000
   3.38650000E+01    2.54938000E-02 
   5.09479000E+00    1.90373000E-01 
   1.15879000E+00    8.52161000E-01 
S    1    1.000000
   3.25840000E-01    1.00000000E+00 
S    1    1.000000
   1.02741000E-01    1.00000000E+00 
S    1    1.000000
   3.60000000E-02    1.00000000E+00 
P    1    1.000000
   7.50000000E-01    1.00000000E+00 

3    0
S    3    1.000000
   3.38650000E+01    2.54938000E-02 
   5.09479000E+00    1.90373000E-01 
   1.15879000E+00    8.52161000E-01 
S    1    1.000000
   3.25840000E-01    1.00000000E+00 
S    1    1.000000
   1.02741000E-01    1.00000000E+00 
S    1    1.000000
   3.60000000E-02    1.00000000E+00 
P    1    1.000000
   7.50000000E-01    1.00000000E+00 

4    0
S    3    1.000000
   3.38650000E+01    2.54938000E-02 
   5.09479000E+00    1.90373000E-01 
   1.15879000E+00    8.52161000E-01 
S    1    1.000000
   3.25840000E-01    1.00000000E+00 
S    1    1.000000
   1.02741000E-01    1.00000000E+00 
S    1    1.000000
   3.60000000E-02    1.00000000E+00 
P    1    1.000000
   7.50000000E-01    1.00000000E+00 

5    0
S    1    1.000000
   4.56324000E+03    1.96665000E-03 
S    1    1.000000
   6.82024000E+02    1.52306000E-02 
S    1    1.000000
   1.54973000E+02    7.61269000E-02 
S    1    1.000000
   4.44553000E+01    2.60801000E-01 
S    1    1.000000
   1.30290000E+01    6.16462000E-01 
S    1    1.000000
   1.82773000E+00    2.21006000E-01 
SP   3    1.000000
   2.09642000E+01    1.14660000E-01   4.02487000E-02 
   4.80331000E+00    9.19999000E-01   2.37594000E-01 
   1.45933000E+00   -3.03068000E-03   8.15854000E-01 
SP   1    1.000000
   4.83456000E-01    1.00000000E+00   1.00000000E+00 
SP   1    1.000000
   1.45585000E-01    1.00000000E+00   1.00000000E+00 
SP   1    1.000000
   4.38000000E-02    1.00000000E+00   1.00000000E+00 
SP   1    1.000000
   1.31927711E-02    1.00000000E+00   1.00000000E+00 
D    1    1.000000
   6.26000000E-01    1.00000000E+00 

6    0
S    1    1.000000
   8.58850000E+03    1.89515000E-03 
S    1    1.000000
   1.29723000E+03    1.43859000E-02 
S    1    1.000000
   2.99296000E+02    7.07320000E-02 
S    1    1.000000
   8.73771000E+01    2.40001000E-01 
S    1    1.000000
   2.56789000E+01    5.94797000E-01 
S    1    1.000000
   3.74004000E+00    2.80802000E-01 
SP   3    1.000000
   4.21175000E+01    1.13889000E-01   3.65114000E-02 
   9.62837000E+00    9.20811000E-01   2.37153000E-01 
   2.85332000E+00   -3.27447000E-03   8.19702000E-01 
SP   1    1.000000
   9.05661000E-01    1.00000000E+00   1.00000000E+00 
SP   1    1.000000
   2.55611000E-01    1.00000000E+00   1.00000000E+00 
SP   1    1.000000
   8.45000000E-02    1.00000000E+00   1.00000000E+00 
SP   1    1.000000
   2.54518072E-02    1.00000000E+00   1.00000000E+00 
D    1    1.000000
   1.29200000E+00    1.00000000E+00 

7    0
S    1    1.000000
   4.56324000E+03    1.96665000E-03 
S    1    1.000000
   6.82024000E+02    1.52306000E-02 
S    1    1.000000
   1.54973000E+02    7.61269000E-02 
S    1    1.000000
   4.44553000E+01    2.60801000E-01 
S    1    1.000000
   1.30290000E+01    6.16462000E-01 
S    1    1.000000
   1.82773000E+00    2.21006000E-01 
SP   3    1.000000
   2.09642000E+01    1.14660000E-01   4.02487000E-02 
   4.80331000E+00    9.19999000E-01   2.37594000E-01 
   1.45933000E+00   -3.03068000E-03   8.15854000E-01 
SP   1    1.000000
   4.83456000E-01    1.00000000E+00   1.00000000E+00 
SP   1    1.000000
   1.45585000E-01    1.00000000E+00   1.00000000E+00 
SP   1    1.000000
   4.38000000E-02    1.00000000E+00   1.00000000E+00 
SP   1    1.000000
   1.31927711E-02    1.00000000E+00   1.00000000E+00 
D    1    1.000000
   6.26000000E-01    1.00000000E+00 

8    0
S    1    1.000000
   8.58850000E+03    1.89515000E-03 
S    1    1.000000
   1.29723000E+03    1.43859000E-02 
S    1    1.000000
   2.99296000E+02    7.07320000E-02 
S    1    1.000000
   8.73771000E+01    2.40001000E-01 
S    1    1.000000
   2.56789000E+01    5.94797000E-01 
S    1    1.000000
   3.74004000E+00    2.80802000E-01 
SP   3    1.000000
   4.21175000E+01    1.13889000E-01   3.65114000E-02 
   9.62837000E+00    9.20811000E-01   2.37153000E-01 
   2.85332000E+00   -3.27447000E-03   8.19702000E-01 
SP   1    1.000000
   9.05661000E-01    1.00000000E+00   1.00000000E+00 
SP   1    1.000000
   2.55611000E-01    1.00000000E+00   1.00000000E+00 
SP   1    1.000000
   8.45000000E-02    1.00000000E+00   1.00000000E+00 
SP   1    1.000000
   2.54518072E-02    1.00000000E+00   1.00000000E+00 
D    1    1.000000
   1.29200000E+00    1.00000000E+00 

9    0
S    1    1.000000
   6.29348000E+03    1.96979000E-03 
S    1    1.000000
   9.49044000E+02    1.49613000E-02 
S    1    1.000000
   2.18776000E+02    7.35006000E-02 
S    1    1.000000
   6.36916000E+01    2.48937000E-01 
S    1    1.000000
   1.88282000E+01    6.02460000E-01 
S    1    1.000000
   2.72023000E+00    2.56202000E-01 
SP   3    1.000000
   3.06331000E+01    1.11906000E-01   3.83119000E-02 
   7.02614000E+00    9.21666000E-01   2.37403000E-01 
   2.11205000E+00   -2.56919000E-03   8.17592000E-01 
SP   1    1.000000
   6.84009000E-01    1.00000000E+00   1.00000000E+00 
SP   1    1.000000
   2.00878000E-01    1.00000000E+00   1.00000000E+00 
SP   1    1.000000
   6.39000000E-02    1.00000000E+00   1.00000000E+00 
SP   1    1.000000
   1.92469880E-02    1.00000000E+00   1.00000000E+00 
D    1    1.000000
   9.13000000E-01    1.00000000E+00 

10    0
S    1    1.000000
   6.29348000E+03    1.96979000E-03 
S    1    1.000000
   9.49044000E+02    1.49613000E-02 
S    1    1.000000
   2.18776000E+02    7.35006000E-02 
S    1    1.000000
   6.36916000E+01    2.48937000E-01 
S    1    1.000000
   1.88282000E+01    6.02460000E-01 
S    1    1.000000
   2.72023000E+00    2.56202000E-01 
SP   3    1.000000
   3.06331000E+01    1.11906000E-01   3.83119000E-02 
   7.02614000E+00    9.21666000E-01   2.37403000E-01 
   2.11205000E+00   -2.56919000E-03   8.17592000E-01 
SP   1    1.000000
   6.84009000E-01    1.00000000E+00   1.00000000E+00 
SP   1    1.000000
   2.00878000E-01    1.00000000E+00   1.00000000E+00 
SP   1    1.000000
   6.39000000E-02    1.00000000E+00   1.00000000E+00 
SP   1    1.000000
   1.92469880E-02    1.00000000E+00   1.00000000E+00 
D    1    1.000000
   9.13000000E-01    1.00000000E+00 

11    0
S    1    1.000000
   4.56324000E+03    1.96665000E-03 
S    1    1.000000
   6.82024000E+02    1.52306000E-02 
S    1    1.000000
   1.54973000E+02    7.61269000E-02 
S    1    1.000000
   4.44553000E+01    2.60801000E-01 
S    1    1.000000
   1.30290000E+01    6.16462000E-01 
S    1    1.000000
   1.82773000E+00    2.21006000E-01 
SP   3    1.000000
   2.09642000E+01    1.14660000E-01   4.02487000E-02 
   4.80331000E+00    9.19999000E-01   2.37594000E-01 
   1.45933000E+00   -3.03068000E-03   8.15854000E-01 
SP   1    1.000000
   4.83456000E-01    1.00000000E+00   1.00000000E+00 
SP   1    1.000000
   1.45585000E-01    1.00000000E+00   1.00000000E+00 
SP   1    1.000000
   4.38000000E-02    1.00000000E+00   1.00000000E+00 
SP   1    1.000000
   1.31927711E-02    1.00000000E+00   1.00000000E+00 
D    1    1.000000
   6.26000000E-01    1.00000000E+00 

12    0
S    3    1.000000
   3.38650000E+01    2.54938000E-02 
   5.09479000E+00    1.90373000E-01 
   1.15879000E+00    8.52161000E-01 
S    1    1.000000
   3.25840000E-01    1.00000000E+00 
S    1    1.000000
   1.02741000E-01    1.00000000E+00 
S    1    1.000000
   3.60000000E-02    1.00000000E+00 
P    1    1.000000
   7.50000000E-01    1.00000000E+00 

[MO]
Sym=X
Ene=0.000153
Spin=Alpha
Occup=1
1    0.000477018267
2    0.0036929531
3    0.0184216937
4    0.0632492044
5    0.149400184
6    0.0544859797
7    0.200145998
8    -0.000547741483
9    8.59207717e-05
10    -2.85783868e-16
11    0.000465091422
12    8.13845837e-05
13    -0.00018065377
14    3.41502713e-15
15    0.000987334605
16    9.5273458e-05
17    0.000629168135
18    -3.18239357e-15
19    0.00405508712
20    0.000114345626
21    0.0018997489
22    1.17562703e-14
23    0.000277832719
24    -0.000112668592
25    0.000185171642
26    4.5935237e-14
27    -5.13604874e-05
28    4.17624177e-16
29    -7.77447042e-05
30    5.12651962e-16
31    -8.28835868e-05
32    3.13046679e-05
33    -3.72325999e-06
34    -1.61504273e-05
35    -0.000142287501
36    3.76359514e-05
37    2.43214576e-05
38    -5.71517438e-16
39    0.000154608233
40    0.000166811759
41    0.000323980205
42    0.00105498674
43    -2.12035525e-05
44    0.000100601512
45    -1.98450886e-16
46    2.00253097e-05
47    -1.35981077e-05
48    1.94442344e-05
49    -7.94793578e-05
50    -5.54032988e-06
51    -2.93894787e-05
52    1.44171769e-15
53    0.000764688003
54    0.00591981209
55    0.0295316084
56    0.101387724
57    0.239533221
58    0.0871193544
59    0.320801041
60    0.000443206837
61    -0.000303169607
62    1.08056039e-15
63    0.00112862834
64    -0.000503634638
65    0.000305430826
66    -2.53487705e-16
67    0.0014333818
68    0.000256320405
69    -0.000118462802
70    5.11033338e-15
71    -3.12960556e-05
72    -0.000514944055
73    0.000616549924
74    -1.96256091e-14
75    -0.000352268757
76    9.75731358e-05
77    4.88663437e-05
78    -2.71559981e-14
79    -0.00020115592
80    2.45024923e-16
81    -0.000170529516
82    6.53503399e-16
83    9.03652179e-05
84    -2.81092293e-07
85    -2.06598065e-06
86    -1.07812962e-05
87    -3.45874283e-05
88    -0.000102626754
89    -0.000134035097
90    -0.000143452119
91    0.000145624393
92    -8.79160592e-05
93    4.51419686e-16
94    0.000428566282
95    0.00037301124
96    -0.00022924134
97    -1.76768089e-16
98    -0.000254271359
99    -0.000207190171
100    0.000119085753
101    2.46999143e-16
102    -3.56017806e-05
103    0.000197826845
104    -9.53446761e-05
105    -6.38461819e-16
106    -0.0011332371
107    -0.000247340245
108    3.87117905e-05
109    1.82723323e-14
110    -0.000165728844
111    -1.12461697e-16
112    -8.05472866e-05
113    2.9159057e-16
114    8.43145872e-05
115    3.1673926e-05
116    0.000245222701
117    0.0012232361
118    0.00420026775
119    0.00992077626
120    0.00364406644
121    0.0133162775
122    -1.96673042e-06
123    6.95246119e-05
124    4.12001373e-15
125    -0.000205207693
126    -5.34915741e-06
127    0.000318582894
128    6.03609426e-15
129    0.000530934498
130    -0.000125323776
131    -0.000485169275
132    7.3917033e-15
133    0.00326078635
134    -0.000644343887
135    -0.00103643866
136    3.15485782e-14
137    0.000596119649
138    2.33731877e-05
139    -0.000116454709
140    2.05431839e-14
141    -1.60061876e-05
142    2.80097469e-16
143    3.54569675e-05
144    2.5342723e-16
145    0.0002089077
146    1.42453869e-07
147    1.07410972e-06
148    5.32694027e-06
149    1.78871467e-05
150    4.70172449e-05
151    3.03616928e-05
152    5.40829497e-05
153    -9.17080177e-06
154    -1.60192999e-05
155    2.71186818e-15
156    -3.16730875e-06
157    -7.74649205e-06
158    4.67362026e-06
159    3.6150706e-15
160    6.05200107e-05
161    -2.3354008e-05
162    3.92364154e-05
163    9.47327599e-15
164    -9.94853217e-06
165    7.70873999e-05
166    3.68281144e-05
167    -2.57670115e-15
168    0.000959879789
169    -0.000167853836
170    -1.52340004e-06
171    -6.71952511e-15
172    -9.32948002e-06
173    -6.89798281e-16
174    -2.5121064e-06
175    -8.89003136e-16
176    1.86700233e-05
177    -8.53491618e-08
178    -5.61171657e-07
179    -3.47080322e-06
180    -9.37775926e-06
181    -4.65601373e-05
182    -0.000135877051
183    -1.25441982e-05
184    -3.54129463e-05
185    -3.62200822e-05
186    1.69722153e-15
187    0.000394818663
188    -0.000465705817
189    -0.0002018085
190    3.13746824e-15
191    -0.000206780611
192    0.000220956422
193    0.000122481696
194    4.90988714e-15
195    -0.000641738919
196    0.000524539295
197    0.00012421887
198    -2.50127128e-15
199    -8.066669e-05
200    -0.000522766999
201    8.04960316e-05
202    1.24331683e-15
203    0.000173123783
204    -2.59906819e-16
205    -6.99584028e-05
206    4.27503904e-16
207    0.000142078952
208    -1.421424e-07
209    -9.39294072e-07
210    -5.76202843e-06
211    -1.57025866e-05
212    -7.68636124e-05
213    -0.00022468908
214    -1.94734499e-05
215    4.94082189e-05
216    3.34524151e-05
217    -3.73450329e-16
218    0.000635410835
219    0.000236470546
220    0.000319652977
221    3.03350898e-16
222    -0.000264362878
223    -5.68477512e-05
224    -0.000190729092
225    -1.7996013e-15
226    -0.00143786471
227    -0.000358079996
228    -0.000155467037
229    5.81979908e-15
230    -0.000497820405
231    -0.000262128539
232    0.000110933771
233    -2.80733368e-14
234    -0.000144554755
235    1.95732389e-17
236    -0.000118987681
237    4.38599436e-16
238    -0.000163243418
239    -0.000646291956
240    -0.0050034727
241    -0.0249585216
242    -0.0856962147
243    -0.202419702
244    -0.0740207475
245    -0.271025122
246    4.72679049e-05
247    -0.000166108499
248    1.84072398e-15
249    -0.000930940553
250    -0.000123685702
251    6.71752724e-05
252    4.01669684e-15
253    -0.00134676743
254    0.00063952816
255    -0.000435018321
256    6.62558014e-15
257    -0.00574736239
258    0.00119453397
259    -0.00121078998
260    -1.53388752e-14
261    -0.000285583101
262    -7.26064991e-05
263    -0.000193129382
264    -4.58073767e-14
265    4.9096771e-05
266    9.69590998e-16
267    7.80228517e-05
268    -1.81303421e-16
269    8.98868063e-06
270    -0.000205426341
271    -0.000214562485
272    -0.00031857388
273    -0.000463607549
274    0.000108111703
275    -8.87507318e-05
276    8.57501025e-16
[5D]