[Molden Format]
[Atoms] (Angs)
  C      1    6     -0.00714236     -1.70213747     -0.00000000
  H      2    1     -2.06882847     -1.44022412      0.00000000
  H      3    1     -0.12337987     -2.77567521      0.00000000
  H      4    1      0.04651892      1.98813947     -0.00000000
  C      5    6     -1.21953563      0.40211669      0.00000000
  O      6    8     -2.25921553      1.03043814      0.00000000
  C      7    6      1.28797806      0.34644937     -0.00000000
  O      8    8      2.31273661      1.00537216     -0.00000000
  N      9    7      0.03446295      0.97739857     -0.00000000
  N     10    7     -1.17287765     -0.98229824      0.00000000
  C     11    6      1.20107039     -1.10433419     -0.00000000
  H     12    1      2.11220096     -1.67699125     -0.00000000
[GTO]
1    0
S    1    1.000000
   4.56324000E+03    1.96665000E-03 
S    1    1.000000
   6.82024000E+02    1.52306000E-02 
S    1    1.000000
   1.54973000E+02    7.61269000E-02 
S    1    1.000000
   4.44553000E+01    2.60801000E-01 
S    1    1.000000
   1.30290000E+01    6.16462000E-01 
S    1    1.000000
   1.82773000E+00    2.21006000E-01 
SP   3    1.000000
   2.09642000E+01    1.14660000E-01   4.02487000E-02 
   4.80331000E+00    9.19999000E-01   2.37594000E-01 
   1.45933000E+00   -3.03068000E-03   8.15854000E-01 
SP   1    1.000000
   4.83456000E-01    1.00000000E+00   1.00000000E+00 
SP   1    1.000000
   1.45585000E-01    1.00000000E+00   1.00000000E+00 
SP   1    1.000000
   4.38000000E-02    1.00000000E+00   1.00000000E+00 
SP   1    1.000000
   1.31927711E-02    1.00000000E+00   1.00000000E+00 
D    1    1.000000
   6.26000000E-01    1.00000000E+00 

2    0
S    3    1.000000
   3.38650000E+01    2.54938000E-02 
   5.09479000E+00    1.90373000E-01 
   1.15879000E+00    8.52161000E-01 
S    1    1.000000
   3.25840000E-01    1.00000000E+00 
S    1    1.000000
   1.02741000E-01    1.00000000E+00 
S    1    1.000000
   3.60000000E-02    1.00000000E+00 
P    1    1.000000
   7.50000000E-01    1.00000000E+00 

3    0
S    3    1.000000
   3.38650000E+01    2.54938000E-02 
   5.09479000E+00    1.90373000E-01 
   1.15879000E+00    8.52161000E-01 
S    1    1.000000
   3.25840000E-01    1.00000000E+00 
S    1    1.000000
   1.02741000E-01    1.00000000E+00 
S    1    1.000000
   3.60000000E-02    1.00000000E+00 
P    1    1.000000
   7.50000000E-01    1.00000000E+00 

4    0
S    3    1.000000
   3.38650000E+01    2.54938000E-02 
   5.09479000E+00    1.90373000E-01 
   1.15879000E+00    8.52161000E-01 
S    1    1.000000
   3.25840000E-01    1.00000000E+00 
S    1    1.000000
   1.02741000E-01    1.00000000E+00 
S    1    1.000000
   3.60000000E-02    1.00000000E+00 
P    1    1.000000
   7.50000000E-01    1.00000000E+00 

5    0
S    1    1.000000
   4.56324000E+03    1.96665000E-03 
S    1    1.000000
   6.82024000E+02    1.52306000E-02 
S    1    1.000000
   1.54973000E+02    7.61269000E-02 
S    1    1.000000
   4.44553000E+01    2.60801000E-01 
S    1    1.000000
   1.30290000E+01    6.16462000E-01 
S    1    1.000000
   1.82773000E+00    2.21006000E-01 
SP   3    1.000000
   2.09642000E+01    1.14660000E-01   4.02487000E-02 
   4.80331000E+00    9.19999000E-01   2.37594000E-01 
   1.45933000E+00   -3.03068000E-03   8.15854000E-01 
SP   1    1.000000
   4.83456000E-01    1.00000000E+00   1.00000000E+00 
SP   1    1.000000
   1.45585000E-01    1.00000000E+00   1.00000000E+00 
SP   1    1.000000
   4.38000000E-02    1.00000000E+00   1.00000000E+00 
SP   1    1.000000
   1.31927711E-02    1.00000000E+00   1.00000000E+00 
D    1    1.000000
   6.26000000E-01    1.00000000E+00 

6    0
S    1    1.000000
   8.58850000E+03    1.89515000E-03 
S    1    1.000000
   1.29723000E+03    1.43859000E-02 
S    1    1.000000
   2.99296000E+02    7.07320000E-02 
S    1    1.000000
   8.73771000E+01    2.40001000E-01 
S    1    1.000000
   2.56789000E+01    5.94797000E-01 
S    1    1.000000
   3.74004000E+00    2.80802000E-01 
SP   3    1.000000
   4.21175000E+01    1.13889000E-01   3.65114000E-02 
   9.62837000E+00    9.20811000E-01   2.37153000E-01 
   2.85332000E+00   -3.27447000E-03   8.19702000E-01 
SP   1    1.000000
   9.05661000E-01    1.00000000E+00   1.00000000E+00 
SP   1    1.000000
   2.55611000E-01    1.00000000E+00   1.00000000E+00 
SP   1    1.000000
   8.45000000E-02    1.00000000E+00   1.00000000E+00 
SP   1    1.000000
   2.54518072E-02    1.00000000E+00   1.00000000E+00 
D    1    1.000000
   1.29200000E+00    1.00000000E+00 

7    0
S    1    1.000000
   4.56324000E+03    1.96665000E-03 
S    1    1.000000
   6.82024000E+02    1.52306000E-02 
S    1    1.000000
   1.54973000E+02    7.61269000E-02 
S    1    1.000000
   4.44553000E+01    2.60801000E-01 
S    1    1.000000
   1.30290000E+01    6.16462000E-01 
S    1    1.000000
   1.82773000E+00    2.21006000E-01 
SP   3    1.000000
   2.09642000E+01    1.14660000E-01   4.02487000E-02 
   4.80331000E+00    9.19999000E-01   2.37594000E-01 
   1.45933000E+00   -3.03068000E-03   8.15854000E-01 
SP   1    1.000000
   4.83456000E-01    1.00000000E+00   1.00000000E+00 
SP   1    1.000000
   1.45585000E-01    1.00000000E+00   1.00000000E+00 
SP   1    1.000000
   4.38000000E-02    1.00000000E+00   1.00000000E+00 
SP   1    1.000000
   1.31927711E-02    1.00000000E+00   1.00000000E+00 
D    1    1.000000
   6.26000000E-01    1.00000000E+00 

8    0
S    1    1.000000
   8.58850000E+03    1.89515000E-03 
S    1    1.000000
   1.29723000E+03    1.43859000E-02 
S    1    1.000000
   2.99296000E+02    7.07320000E-02 
S    1    1.000000
   8.73771000E+01    2.40001000E-01 
S    1    1.000000
   2.56789000E+01    5.94797000E-01 
S    1    1.000000
   3.74004000E+00    2.80802000E-01 
SP   3    1.000000
   4.21175000E+01    1.13889000E-01   3.65114000E-02 
   9.62837000E+00    9.20811000E-01   2.37153000E-01 
   2.85332000E+00   -3.27447000E-03   8.19702000E-01 
SP   1    1.000000
   9.05661000E-01    1.00000000E+00   1.00000000E+00 
SP   1    1.000000
   2.55611000E-01    1.00000000E+00   1.00000000E+00 
SP   1    1.000000
   8.45000000E-02    1.00000000E+00   1.00000000E+00 
SP   1    1.000000
   2.54518072E-02    1.00000000E+00   1.00000000E+00 
D    1    1.000000
   1.29200000E+00    1.00000000E+00 

9    0
S    1    1.000000
   6.29348000E+03    1.96979000E-03 
S    1    1.000000
   9.49044000E+02    1.49613000E-02 
S    1    1.000000
   2.18776000E+02    7.35006000E-02 
S    1    1.000000
   6.36916000E+01    2.48937000E-01 
S    1    1.000000
   1.88282000E+01    6.02460000E-01 
S    1    1.000000
   2.72023000E+00    2.56202000E-01 
SP   3    1.000000
   3.06331000E+01    1.11906000E-01   3.83119000E-02 
   7.02614000E+00    9.21666000E-01   2.37403000E-01 
   2.11205000E+00   -2.56919000E-03   8.17592000E-01 
SP   1    1.000000
   6.84009000E-01    1.00000000E+00   1.00000000E+00 
SP   1    1.000000
   2.00878000E-01    1.00000000E+00   1.00000000E+00 
SP   1    1.000000
   6.39000000E-02    1.00000000E+00   1.00000000E+00 
SP   1    1.000000
   1.92469880E-02    1.00000000E+00   1.00000000E+00 
D    1    1.000000
   9.13000000E-01    1.00000000E+00 

10    0
S    1    1.000000
   6.29348000E+03    1.96979000E-03 
S    1    1.000000
   9.49044000E+02    1.49613000E-02 
S    1    1.000000
   2.18776000E+02    7.35006000E-02 
S    1    1.000000
   6.36916000E+01    2.48937000E-01 
S    1    1.000000
   1.88282000E+01    6.02460000E-01 
S    1    1.000000
   2.72023000E+00    2.56202000E-01 
SP   3    1.000000
   3.06331000E+01    1.11906000E-01   3.83119000E-02 
   7.02614000E+00    9.21666000E-01   2.37403000E-01 
   2.11205000E+00   -2.56919000E-03   8.17592000E-01 
SP   1    1.000000
   6.84009000E-01    1.00000000E+00   1.00000000E+00 
SP   1    1.000000
   2.00878000E-01    1.00000000E+00   1.00000000E+00 
SP   1    1.000000
   6.39000000E-02    1.00000000E+00   1.00000000E+00 
SP   1    1.000000
   1.92469880E-02    1.00000000E+00   1.00000000E+00 
D    1    1.000000
   9.13000000E-01    1.00000000E+00 

11    0
S    1    1.000000
   4.56324000E+03    1.96665000E-03 
S    1    1.000000
   6.82024000E+02    1.52306000E-02 
S    1    1.000000
   1.54973000E+02    7.61269000E-02 
S    1    1.000000
   4.44553000E+01    2.60801000E-01 
S    1    1.000000
   1.30290000E+01    6.16462000E-01 
S    1    1.000000
   1.82773000E+00    2.21006000E-01 
SP   3    1.000000
   2.09642000E+01    1.14660000E-01   4.02487000E-02 
   4.80331000E+00    9.19999000E-01   2.37594000E-01 
   1.45933000E+00   -3.03068000E-03   8.15854000E-01 
SP   1    1.000000
   4.83456000E-01    1.00000000E+00   1.00000000E+00 
SP   1    1.000000
   1.45585000E-01    1.00000000E+00   1.00000000E+00 
SP   1    1.000000
   4.38000000E-02    1.00000000E+00   1.00000000E+00 
SP   1    1.000000
   1.31927711E-02    1.00000000E+00   1.00000000E+00 
D    1    1.000000
   6.26000000E-01    1.00000000E+00 

12    0
S    3    1.000000
   3.38650000E+01    2.54938000E-02 
   5.09479000E+00    1.90373000E-01 
   1.15879000E+00    8.52161000E-01 
S    1    1.000000
   3.25840000E-01    1.00000000E+00 
S    1    1.000000
   1.02741000E-01    1.00000000E+00 
S    1    1.000000
   3.60000000E-02    1.00000000E+00 
P    1    1.000000
   7.50000000E-01    1.00000000E+00 

[MO]
Sym=X
Ene=0.082374
Spin=Alpha
Occup=1
1    -1.15960764e-07
2    -8.60693771e-07
3    -4.55979855e-06
4    -1.46413418e-05
5    -4.48504366e-05
6    -6.33673629e-05
7    -2.26581599e-05
8    -1.63186866e-05
9    -1.421273e-05
10    7.29686873e-16
11    0.000119025219
12    0.000120323415
13    0.00010327902
14    -2.18483605e-15
15    -8.48166694e-05
16    -9.47893873e-05
17    0.000102936395
18    4.52172981e-15
19    -0.00177016134
20    -2.28740905e-05
21    -0.000629689628
22    -2.95735965e-14
23    2.14001852e-05
24    9.6202495e-05
25    -0.000214516978
26    -5.56523521e-14
27    7.57759854e-05
28    8.62636825e-16
29    2.06051914e-07
30    -1.24354982e-15
31    1.37604619e-05
32    1.04786762e-05
33    -3.85041653e-05
34    0.000213994154
35    0.00032547626
36    1.38215302e-06
37    -4.61581215e-06
38    1.14403348e-15
39    -2.16884981e-07
40    8.98072864e-05
41    -4.0318437e-05
42    -2.47751476e-05
43    1.68443218e-05
44    1.97200032e-05
45    1.8466795e-16
46    3.45364227e-05
47    5.18540157e-05
48    0.000132024581
49    -0.000231997666
50    -1.21973966e-05
51    -4.14565223e-05
52    7.38593918e-16
53    -4.02332831e-07
54    -3.08534269e-06
55    -1.55997871e-05
56    -5.27560786e-05
57    -0.000132812476
58    -8.42569648e-05
59    -0.000147029769
60    -1.78602503e-05
61    -1.38508333e-06
62    2.33996501e-15
63    7.39028809e-05
64    5.22496272e-05
65    1.94486883e-06
66    6.83214688e-15
67    -4.53576004e-05
68    -0.000479458797
69    0.000228866897
70    3.63879669e-15
71    0.000576273953
72    -0.000131097817
73    -0.000261522299
74    -1.99767304e-14
75    -0.000477069927
76    -0.000186193724
77    -5.7383047e-05
78    -9.59910285e-15
79    5.53516976e-06
80    2.97549008e-16
81    2.18884893e-06
82    -7.05425897e-17
83    4.33431297e-05
84    -1.50373819e-09
85    1.59281073e-09
86    -8.6761032e-08
87    5.86294724e-08
88    -3.25560438e-06
89    -1.2800122e-05
90    6.88268112e-06
91    -1.17727108e-06
92    9.46086384e-07
93    1.57076312e-15
94    3.66502634e-05
95    1.97373882e-05
96    -1.47135725e-06
97    3.04727917e-15
98    -0.000177200932
99    -8.27514536e-05
100    6.44540634e-05
101    2.63791216e-15
102    -0.000768547935
103    -0.000236649525
104    6.20744147e-05
105    9.58544931e-15
106    -0.000214276052
107    5.01594785e-05
108    0.000209325197
109    -1.14460086e-14
110    5.08476136e-06
111    2.6132105e-16
112    1.42309766e-06
113    5.57454057e-16
114    5.09000166e-06
115    0.00110950642
116    0.00858923205
117    0.042848043
118    0.147105043
119    0.347537817
120    0.126440771
121    0.465460471
122    -0.000740011129
123    0.000491367358
124    -5.52208817e-16
125    0.0016299621
126    0.000804992118
127    -0.000246451326
128    -9.18915642e-17
129    0.00152368655
130    -0.000286418853
131    0.00041921881
132    -2.05954906e-15
133    -0.00236245664
134    0.000158221249
135    0.00242226213
136    -3.63100345e-14
137    -0.00026122265
138    -0.000297994316
139    4.52455356e-05
140    -5.21456952e-15
141    0.000335307161
142    2.53257753e-16
143    -0.000254956379
144    -1.31756608e-15
145    -5.1652879e-05
146    -3.57410307e-07
147    -2.61475159e-06
148    -1.37587658e-05
149    -4.38159197e-05
150    -0.000133393241
151    -0.000192391443
152    -0.000183854242
153    -0.00020515195
154    -0.000137099742
155    -2.85642203e-16
156    0.000642776705
157    -0.000558883615
158    -0.000372131768
159    -2.11027672e-15
160    -0.000266097862
161    0.000229778418
162    0.000115223037
163    -3.17763762e-15
164    -0.000370671624
165    -7.01239108e-05
166    -0.00018845109
167    5.46013019e-15
168    -0.00222375153
169    0.000594570352
170    6.53373883e-05
171    -1.23660823e-14
172    0.000256775014
173    1.61568595e-16
174    -0.000114616974
175    1.09565201e-16
176    0.000113912742
177    -2.51948049e-07
178    -1.73388347e-06
179    -9.92980078e-06
180    -2.86658831e-05
181    -0.000117968115
182    -0.000258870523
183    -3.47457105e-05
184    4.47631098e-05
185    -3.86161327e-05
186    6.51831753e-16
187    0.000570478002
188    0.000695248866
189    -0.00032916264
190    5.76719377e-15
191    5.32690808e-05
192    -0.000162921031
193    -0.000158265913
194    -3.78468427e-15
195    -0.00124818776
196    -0.0010168718
197    -1.90096462e-05
198    2.60874978e-14
199    0.00043870113
200    0.000654438856
201    9.04742965e-05
202    1.10723914e-14
203    -0.000268761979
204    -1.72746329e-16
205    -0.000123741749
206    -6.68471137e-16
207    0.000216064521
208    1.0743416e-09
209    4.69846648e-08
210    -4.84866109e-08
211    9.10320648e-07
212    -7.57283178e-06
213    -3.62220755e-05
214    2.35105899e-05
215    -7.21997112e-06
216    -1.61967678e-06
217    7.20939532e-16
218    6.99848528e-05
219    2.83246447e-05
220    8.61095266e-06
221    3.87631296e-15
222    -9.21896194e-06
223    -2.53626866e-05
224    3.71827715e-05
225    -4.88789133e-17
226    0.000121184963
227    0.000458775098
228    7.94102113e-05
229    1.29581857e-14
230    0.000738294458
231    -2.21091703e-05
232    0.000353031196
233    4.40508536e-14
234    -9.46216136e-06
235    9.41111759e-16
236    -3.91678609e-06
237    -1.97999243e-16
238    -3.1705973e-06
239    7.72863343e-06
240    5.97912717e-05
241    0.000298469193
242    0.00102338507
243    0.00242389154
244    0.000848970977
245    0.00319430146
246    -2.47469629e-06
247    9.06214372e-05
248    -7.71064185e-16
249    0.000303926517
250    7.40127632e-05
251    0.00048848707
252    -1.36678436e-15
253    -0.000189198314
254    4.59815316e-05
255    -0.000269581763
256    -3.73487323e-15
257    0.00604912231
258    -0.000269636663
259    0.00143603763
260    2.5558042e-14
261    0.000624377683
262    9.90218577e-05
263    0.000366680636
264    2.95549131e-14
265    3.55744902e-05
266    2.02474547e-16
267    -2.26102948e-05
268    -3.55627017e-16
269    -0.000283056288
270    2.69585005e-05
271    9.33151817e-05
272    -0.000178175265
273    0.000269653049
274    -3.78609871e-05
275    7.28803334e-05
276    -8.33266746e-16
[5D]