[Molden Format]
[Atoms] (Angs)
  C      1    6     -0.00714236     -1.70213747     -0.00000000
  H      2    1     -2.06882847     -1.44022412      0.00000000
  H      3    1     -0.12337987     -2.77567521      0.00000000
  H      4    1      0.04651892      1.98813947     -0.00000000
  C      5    6     -1.21953563      0.40211669      0.00000000
  O      6    8     -2.25921553      1.03043814      0.00000000
  C      7    6      1.28797806      0.34644937     -0.00000000
  O      8    8      2.31273661      1.00537216     -0.00000000
  N      9    7      0.03446295      0.97739857     -0.00000000
  N     10    7     -1.17287765     -0.98229824      0.00000000
  C     11    6      1.20107039     -1.10433419     -0.00000000
  H     12    1      2.11220096     -1.67699125     -0.00000000
[GTO]
1    0
S    1    1.000000
   4.56324000E+03    1.96665000E-03 
S    1    1.000000
   6.82024000E+02    1.52306000E-02 
S    1    1.000000
   1.54973000E+02    7.61269000E-02 
S    1    1.000000
   4.44553000E+01    2.60801000E-01 
S    1    1.000000
   1.30290000E+01    6.16462000E-01 
S    1    1.000000
   1.82773000E+00    2.21006000E-01 
SP   3    1.000000
   2.09642000E+01    1.14660000E-01   4.02487000E-02 
   4.80331000E+00    9.19999000E-01   2.37594000E-01 
   1.45933000E+00   -3.03068000E-03   8.15854000E-01 
SP   1    1.000000
   4.83456000E-01    1.00000000E+00   1.00000000E+00 
SP   1    1.000000
   1.45585000E-01    1.00000000E+00   1.00000000E+00 
SP   1    1.000000
   4.38000000E-02    1.00000000E+00   1.00000000E+00 
SP   1    1.000000
   1.31927711E-02    1.00000000E+00   1.00000000E+00 
D    1    1.000000
   6.26000000E-01    1.00000000E+00 

2    0
S    3    1.000000
   3.38650000E+01    2.54938000E-02 
   5.09479000E+00    1.90373000E-01 
   1.15879000E+00    8.52161000E-01 
S    1    1.000000
   3.25840000E-01    1.00000000E+00 
S    1    1.000000
   1.02741000E-01    1.00000000E+00 
S    1    1.000000
   3.60000000E-02    1.00000000E+00 
P    1    1.000000
   7.50000000E-01    1.00000000E+00 

3    0
S    3    1.000000
   3.38650000E+01    2.54938000E-02 
   5.09479000E+00    1.90373000E-01 
   1.15879000E+00    8.52161000E-01 
S    1    1.000000
   3.25840000E-01    1.00000000E+00 
S    1    1.000000
   1.02741000E-01    1.00000000E+00 
S    1    1.000000
   3.60000000E-02    1.00000000E+00 
P    1    1.000000
   7.50000000E-01    1.00000000E+00 

4    0
S    3    1.000000
   3.38650000E+01    2.54938000E-02 
   5.09479000E+00    1.90373000E-01 
   1.15879000E+00    8.52161000E-01 
S    1    1.000000
   3.25840000E-01    1.00000000E+00 
S    1    1.000000
   1.02741000E-01    1.00000000E+00 
S    1    1.000000
   3.60000000E-02    1.00000000E+00 
P    1    1.000000
   7.50000000E-01    1.00000000E+00 

5    0
S    1    1.000000
   4.56324000E+03    1.96665000E-03 
S    1    1.000000
   6.82024000E+02    1.52306000E-02 
S    1    1.000000
   1.54973000E+02    7.61269000E-02 
S    1    1.000000
   4.44553000E+01    2.60801000E-01 
S    1    1.000000
   1.30290000E+01    6.16462000E-01 
S    1    1.000000
   1.82773000E+00    2.21006000E-01 
SP   3    1.000000
   2.09642000E+01    1.14660000E-01   4.02487000E-02 
   4.80331000E+00    9.19999000E-01   2.37594000E-01 
   1.45933000E+00   -3.03068000E-03   8.15854000E-01 
SP   1    1.000000
   4.83456000E-01    1.00000000E+00   1.00000000E+00 
SP   1    1.000000
   1.45585000E-01    1.00000000E+00   1.00000000E+00 
SP   1    1.000000
   4.38000000E-02    1.00000000E+00   1.00000000E+00 
SP   1    1.000000
   1.31927711E-02    1.00000000E+00   1.00000000E+00 
D    1    1.000000
   6.26000000E-01    1.00000000E+00 

6    0
S    1    1.000000
   8.58850000E+03    1.89515000E-03 
S    1    1.000000
   1.29723000E+03    1.43859000E-02 
S    1    1.000000
   2.99296000E+02    7.07320000E-02 
S    1    1.000000
   8.73771000E+01    2.40001000E-01 
S    1    1.000000
   2.56789000E+01    5.94797000E-01 
S    1    1.000000
   3.74004000E+00    2.80802000E-01 
SP   3    1.000000
   4.21175000E+01    1.13889000E-01   3.65114000E-02 
   9.62837000E+00    9.20811000E-01   2.37153000E-01 
   2.85332000E+00   -3.27447000E-03   8.19702000E-01 
SP   1    1.000000
   9.05661000E-01    1.00000000E+00   1.00000000E+00 
SP   1    1.000000
   2.55611000E-01    1.00000000E+00   1.00000000E+00 
SP   1    1.000000
   8.45000000E-02    1.00000000E+00   1.00000000E+00 
SP   1    1.000000
   2.54518072E-02    1.00000000E+00   1.00000000E+00 
D    1    1.000000
   1.29200000E+00    1.00000000E+00 

7    0
S    1    1.000000
   4.56324000E+03    1.96665000E-03 
S    1    1.000000
   6.82024000E+02    1.52306000E-02 
S    1    1.000000
   1.54973000E+02    7.61269000E-02 
S    1    1.000000
   4.44553000E+01    2.60801000E-01 
S    1    1.000000
   1.30290000E+01    6.16462000E-01 
S    1    1.000000
   1.82773000E+00    2.21006000E-01 
SP   3    1.000000
   2.09642000E+01    1.14660000E-01   4.02487000E-02 
   4.80331000E+00    9.19999000E-01   2.37594000E-01 
   1.45933000E+00   -3.03068000E-03   8.15854000E-01 
SP   1    1.000000
   4.83456000E-01    1.00000000E+00   1.00000000E+00 
SP   1    1.000000
   1.45585000E-01    1.00000000E+00   1.00000000E+00 
SP   1    1.000000
   4.38000000E-02    1.00000000E+00   1.00000000E+00 
SP   1    1.000000
   1.31927711E-02    1.00000000E+00   1.00000000E+00 
D    1    1.000000
   6.26000000E-01    1.00000000E+00 

8    0
S    1    1.000000
   8.58850000E+03    1.89515000E-03 
S    1    1.000000
   1.29723000E+03    1.43859000E-02 
S    1    1.000000
   2.99296000E+02    7.07320000E-02 
S    1    1.000000
   8.73771000E+01    2.40001000E-01 
S    1    1.000000
   2.56789000E+01    5.94797000E-01 
S    1    1.000000
   3.74004000E+00    2.80802000E-01 
SP   3    1.000000
   4.21175000E+01    1.13889000E-01   3.65114000E-02 
   9.62837000E+00    9.20811000E-01   2.37153000E-01 
   2.85332000E+00   -3.27447000E-03   8.19702000E-01 
SP   1    1.000000
   9.05661000E-01    1.00000000E+00   1.00000000E+00 
SP   1    1.000000
   2.55611000E-01    1.00000000E+00   1.00000000E+00 
SP   1    1.000000
   8.45000000E-02    1.00000000E+00   1.00000000E+00 
SP   1    1.000000
   2.54518072E-02    1.00000000E+00   1.00000000E+00 
D    1    1.000000
   1.29200000E+00    1.00000000E+00 

9    0
S    1    1.000000
   6.29348000E+03    1.96979000E-03 
S    1    1.000000
   9.49044000E+02    1.49613000E-02 
S    1    1.000000
   2.18776000E+02    7.35006000E-02 
S    1    1.000000
   6.36916000E+01    2.48937000E-01 
S    1    1.000000
   1.88282000E+01    6.02460000E-01 
S    1    1.000000
   2.72023000E+00    2.56202000E-01 
SP   3    1.000000
   3.06331000E+01    1.11906000E-01   3.83119000E-02 
   7.02614000E+00    9.21666000E-01   2.37403000E-01 
   2.11205000E+00   -2.56919000E-03   8.17592000E-01 
SP   1    1.000000
   6.84009000E-01    1.00000000E+00   1.00000000E+00 
SP   1    1.000000
   2.00878000E-01    1.00000000E+00   1.00000000E+00 
SP   1    1.000000
   6.39000000E-02    1.00000000E+00   1.00000000E+00 
SP   1    1.000000
   1.92469880E-02    1.00000000E+00   1.00000000E+00 
D    1    1.000000
   9.13000000E-01    1.00000000E+00 

10    0
S    1    1.000000
   6.29348000E+03    1.96979000E-03 
S    1    1.000000
   9.49044000E+02    1.49613000E-02 
S    1    1.000000
   2.18776000E+02    7.35006000E-02 
S    1    1.000000
   6.36916000E+01    2.48937000E-01 
S    1    1.000000
   1.88282000E+01    6.02460000E-01 
S    1    1.000000
   2.72023000E+00    2.56202000E-01 
SP   3    1.000000
   3.06331000E+01    1.11906000E-01   3.83119000E-02 
   7.02614000E+00    9.21666000E-01   2.37403000E-01 
   2.11205000E+00   -2.56919000E-03   8.17592000E-01 
SP   1    1.000000
   6.84009000E-01    1.00000000E+00   1.00000000E+00 
SP   1    1.000000
   2.00878000E-01    1.00000000E+00   1.00000000E+00 
SP   1    1.000000
   6.39000000E-02    1.00000000E+00   1.00000000E+00 
SP   1    1.000000
   1.92469880E-02    1.00000000E+00   1.00000000E+00 
D    1    1.000000
   9.13000000E-01    1.00000000E+00 

11    0
S    1    1.000000
   4.56324000E+03    1.96665000E-03 
S    1    1.000000
   6.82024000E+02    1.52306000E-02 
S    1    1.000000
   1.54973000E+02    7.61269000E-02 
S    1    1.000000
   4.44553000E+01    2.60801000E-01 
S    1    1.000000
   1.30290000E+01    6.16462000E-01 
S    1    1.000000
   1.82773000E+00    2.21006000E-01 
SP   3    1.000000
   2.09642000E+01    1.14660000E-01   4.02487000E-02 
   4.80331000E+00    9.19999000E-01   2.37594000E-01 
   1.45933000E+00   -3.03068000E-03   8.15854000E-01 
SP   1    1.000000
   4.83456000E-01    1.00000000E+00   1.00000000E+00 
SP   1    1.000000
   1.45585000E-01    1.00000000E+00   1.00000000E+00 
SP   1    1.000000
   4.38000000E-02    1.00000000E+00   1.00000000E+00 
SP   1    1.000000
   1.31927711E-02    1.00000000E+00   1.00000000E+00 
D    1    1.000000
   6.26000000E-01    1.00000000E+00 

12    0
S    3    1.000000
   3.38650000E+01    2.54938000E-02 
   5.09479000E+00    1.90373000E-01 
   1.15879000E+00    8.52161000E-01 
S    1    1.000000
   3.25840000E-01    1.00000000E+00 
S    1    1.000000
   1.02741000E-01    1.00000000E+00 
S    1    1.000000
   3.60000000E-02    1.00000000E+00 
P    1    1.000000
   7.50000000E-01    1.00000000E+00 

[MO]
Sym=X
Ene=0.117791
Spin=Alpha
Occup=1
1    -0.00110928324
2    -0.00858766078
3    -0.0428388403
4    -0.147079474
5    -0.347445956
6    -0.126696054
7    -0.465274234
8    0.00111483774
9    -0.000315021373
10    7.43668943e-16
11    -0.00167016734
12    -0.00106095688
13    6.57597604e-05
14    -2.55414436e-15
15    -0.0014810958
16    0.000301529408
17    -0.000859112881
18    9.12755212e-15
19    -0.000912824908
20    0.000704160941
21    -0.000569366334
22    -8.33340303e-14
23    0.000152341945
24    -7.53013219e-05
25    2.91546836e-05
26    6.98979424e-14
27    -0.000363869579
28    1.43299088e-16
29    0.000237559702
30    1.41950136e-15
31    -8.89691924e-05
32    -2.89256779e-05
33    -5.13636531e-05
34    -3.58155854e-05
35    0.000104000104
36    -4.66022115e-05
37    -1.54805091e-05
38    -1.43522872e-15
39    -0.000380095997
40    -0.000463183684
41    -0.000241088056
42    -0.000137957867
43    -4.15242401e-05
44    -0.00030768612
45    8.45464183e-17
46    -1.2216452e-05
47    5.74937739e-05
48    -0.000240983214
49    -0.000253317453
50    -5.6495813e-06
51    -4.9407473e-06
52    -1.4782323e-15
53    1.82451314e-07
54    1.38111125e-06
55    7.11173785e-06
56    2.35766431e-05
57    6.48075074e-05
58    6.73444464e-05
59    5.16583334e-05
60    5.12581211e-06
61    -2.13931995e-05
62    -6.67966937e-15
63    -0.000108574883
64    -1.88521396e-05
65    8.44159859e-05
66    -8.31194845e-15
67    -0.000232491632
68    0.000629934567
69    -0.000397653469
70    -1.32694412e-14
71    -0.000672011818
72    0.000317937269
73    -0.000578637691
74    -1.00412259e-13
75    -0.000507651874
76    -0.000176616073
77    -7.99682553e-06
78    -7.40707432e-14
79    1.8164015e-05
80    -9.73238985e-16
81    -3.99713883e-06
82    2.09260839e-15
83    4.48597233e-05
84    2.2338424e-09
85    -8.83643378e-09
86    1.435815e-07
87    -2.10164431e-07
88    6.26527176e-06
89    2.56396995e-05
90    -1.43674449e-05
91    4.19994886e-06
92    -1.94530117e-06
93    -4.82327381e-15
94    -6.95021899e-05
95    -2.62061455e-05
96    2.58852699e-05
97    -7.1384256e-15
98    0.0003033443
99    0.000156519014
100    -8.66749001e-05
101    -1.48116674e-14
102    0.00102015117
103    0.000159537434
104    -0.000136903571
105    1.21793834e-15
106    0.00135356212
107    0.000276095227
108    -4.55222293e-05
109    2.72355603e-14
110    2.31031275e-06
111    1.37819176e-15
112    -7.20617832e-07
113    -1.41102044e-15
114    5.48109491e-06
115    5.65570272e-06
116    4.37317416e-05
117    0.000218530978
118    0.000748799054
119    0.00178265615
120    0.000700145055
121    0.0023387962
122    -1.08918916e-05
123    -2.40739837e-05
124    2.05567526e-15
125    -8.19337523e-05
126    3.45927669e-05
127    0.000112709914
128    3.91090075e-15
129    -0.000213405544
130    0.000195826919
131    0.000132008463
132    1.01571013e-14
133    0.000123397085
134    -0.000247735451
135    -0.000214090345
136    -9.27913191e-14
137    -4.46876808e-05
138    -0.000192978752
139    7.22499378e-05
140    4.03605783e-14
141    -3.37318761e-05
142    -5.98541373e-17
143    4.40164398e-06
144    2.00319764e-15
145    4.81544796e-05
146    -2.86165824e-09
147    -1.94228047e-08
148    -1.12453209e-07
149    -3.21161941e-07
150    -1.44562483e-06
151    -3.30953689e-06
152    1.41073466e-07
153    -1.7118789e-06
154    -3.10302943e-06
155    1.5040089e-15
156    1.14051124e-05
157    4.29488355e-06
158    1.82814681e-05
159    6.35606482e-15
160    -0.000112297113
161    1.8220613e-06
162    2.86862906e-07
163    -1.39149688e-15
164    9.75992794e-05
165    6.76958709e-06
166    1.4092472e-05
167    2.68169498e-14
168    -4.42888779e-05
169    -7.19437756e-06
170    4.96327478e-05
171    4.6055763e-15
172    -2.79280712e-06
173    -2.78464492e-16
174    7.19244792e-07
175    -1.13604944e-16
176    6.99783659e-06
177    -1.11218861e-08
178    -1.22932233e-07
179    -3.27865604e-07
180    -2.17443658e-06
181    4.33688504e-06
182    3.37330742e-05
183    -2.74126936e-05
184    -1.71807985e-07
185    -8.11958114e-06
186    -3.62589838e-15
187    -6.65726816e-05
188    9.22618347e-06
189    2.84272653e-05
190    1.7997362e-15
191    -2.85639406e-05
192    4.59822188e-05
193    -2.42350356e-05
194    -2.22026901e-14
195    -8.47311496e-05
196    -0.000176477486
197    0.000539828425
198    6.83190694e-14
199    -0.000745882557
200    0.000305135597
201    0.000125295811
202    7.33922799e-14
203    -7.72396697e-06
204    3.03698509e-16
205    2.15808582e-06
206    1.86757612e-15
207    -5.03402311e-06
208    2.9278426e-07
209    2.05705786e-06
210    1.14398758e-05
211    3.41833056e-05
212    0.000129190512
213    0.000274957133
214    6.15919429e-05
215    -6.79166269e-05
216    4.07608016e-05
217    -5.17721902e-15
218    -0.000671272728
219    -0.00073180472
220    0.000443677865
221    2.61492048e-15
222    9.59346584e-05
223    1.8137534e-05
224    -8.05015356e-05
225    -2.81130229e-14
226    0.00132608467
227    0.000458621531
228    -0.000366839725
229    6.67803839e-14
230    0.00059080258
231    0.000320313753
232    -5.1594407e-05
233    3.21325705e-14
234    0.000328085856
235    -8.69708161e-16
236    0.000130109252
237    1.7101936e-16
238    -0.000182897899
239    1.14328758e-05
240    8.8663878e-05
241    0.000441310612
242    0.00151971254
243    0.00355056658
244    0.00122533966
245    0.00494040276
246    0.000148547113
247    7.61351723e-05
248    1.44160879e-15
249    -0.000148841288
250    0.000239080719
251    0.000107016935
252    5.84234269e-15
253    0.000819541815
254    -0.000601283259
255    0.000270103828
256    -5.53556621e-15
257    -0.00106329239
258    1.23910965e-05
259    0.000650272675
260    1.05063288e-13
261    0.000226680163
262    0.000171735373
263    0.000112787761
264    -5.88985774e-14
265    -0.00016309227
266    1.90353896e-16
267    -5.20766473e-05
268    1.17107374e-15
269    -0.000150125887
270    -2.16100079e-05
271    -1.68906766e-05
272    0.000362155115
273    0.000291178889
274    8.24381902e-05
275    1.68621765e-05
276    1.84578642e-15
[5D]