[Molden Format]
[Atoms] (Angs)
  C      1    6     -0.00714236     -1.70213747     -0.00000000
  H      2    1     -2.06882847     -1.44022412      0.00000000
  H      3    1     -0.12337987     -2.77567521      0.00000000
  H      4    1      0.04651892      1.98813947     -0.00000000
  C      5    6     -1.21953563      0.40211669      0.00000000
  O      6    8     -2.25921553      1.03043814      0.00000000
  C      7    6      1.28797806      0.34644937     -0.00000000
  O      8    8      2.31273661      1.00537216     -0.00000000
  N      9    7      0.03446295      0.97739857     -0.00000000
  N     10    7     -1.17287765     -0.98229824      0.00000000
  C     11    6      1.20107039     -1.10433419     -0.00000000
  H     12    1      2.11220096     -1.67699125     -0.00000000
[GTO]
1    0
S    1    1.000000
   4.56324000E+03    1.96665000E-03 
S    1    1.000000
   6.82024000E+02    1.52306000E-02 
S    1    1.000000
   1.54973000E+02    7.61269000E-02 
S    1    1.000000
   4.44553000E+01    2.60801000E-01 
S    1    1.000000
   1.30290000E+01    6.16462000E-01 
S    1    1.000000
   1.82773000E+00    2.21006000E-01 
SP   3    1.000000
   2.09642000E+01    1.14660000E-01   4.02487000E-02 
   4.80331000E+00    9.19999000E-01   2.37594000E-01 
   1.45933000E+00   -3.03068000E-03   8.15854000E-01 
SP   1    1.000000
   4.83456000E-01    1.00000000E+00   1.00000000E+00 
SP   1    1.000000
   1.45585000E-01    1.00000000E+00   1.00000000E+00 
SP   1    1.000000
   4.38000000E-02    1.00000000E+00   1.00000000E+00 
SP   1    1.000000
   1.31927711E-02    1.00000000E+00   1.00000000E+00 
D    1    1.000000
   6.26000000E-01    1.00000000E+00 

2    0
S    3    1.000000
   3.38650000E+01    2.54938000E-02 
   5.09479000E+00    1.90373000E-01 
   1.15879000E+00    8.52161000E-01 
S    1    1.000000
   3.25840000E-01    1.00000000E+00 
S    1    1.000000
   1.02741000E-01    1.00000000E+00 
S    1    1.000000
   3.60000000E-02    1.00000000E+00 
P    1    1.000000
   7.50000000E-01    1.00000000E+00 

3    0
S    3    1.000000
   3.38650000E+01    2.54938000E-02 
   5.09479000E+00    1.90373000E-01 
   1.15879000E+00    8.52161000E-01 
S    1    1.000000
   3.25840000E-01    1.00000000E+00 
S    1    1.000000
   1.02741000E-01    1.00000000E+00 
S    1    1.000000
   3.60000000E-02    1.00000000E+00 
P    1    1.000000
   7.50000000E-01    1.00000000E+00 

4    0
S    3    1.000000
   3.38650000E+01    2.54938000E-02 
   5.09479000E+00    1.90373000E-01 
   1.15879000E+00    8.52161000E-01 
S    1    1.000000
   3.25840000E-01    1.00000000E+00 
S    1    1.000000
   1.02741000E-01    1.00000000E+00 
S    1    1.000000
   3.60000000E-02    1.00000000E+00 
P    1    1.000000
   7.50000000E-01    1.00000000E+00 

5    0
S    1    1.000000
   4.56324000E+03    1.96665000E-03 
S    1    1.000000
   6.82024000E+02    1.52306000E-02 
S    1    1.000000
   1.54973000E+02    7.61269000E-02 
S    1    1.000000
   4.44553000E+01    2.60801000E-01 
S    1    1.000000
   1.30290000E+01    6.16462000E-01 
S    1    1.000000
   1.82773000E+00    2.21006000E-01 
SP   3    1.000000
   2.09642000E+01    1.14660000E-01   4.02487000E-02 
   4.80331000E+00    9.19999000E-01   2.37594000E-01 
   1.45933000E+00   -3.03068000E-03   8.15854000E-01 
SP   1    1.000000
   4.83456000E-01    1.00000000E+00   1.00000000E+00 
SP   1    1.000000
   1.45585000E-01    1.00000000E+00   1.00000000E+00 
SP   1    1.000000
   4.38000000E-02    1.00000000E+00   1.00000000E+00 
SP   1    1.000000
   1.31927711E-02    1.00000000E+00   1.00000000E+00 
D    1    1.000000
   6.26000000E-01    1.00000000E+00 

6    0
S    1    1.000000
   8.58850000E+03    1.89515000E-03 
S    1    1.000000
   1.29723000E+03    1.43859000E-02 
S    1    1.000000
   2.99296000E+02    7.07320000E-02 
S    1    1.000000
   8.73771000E+01    2.40001000E-01 
S    1    1.000000
   2.56789000E+01    5.94797000E-01 
S    1    1.000000
   3.74004000E+00    2.80802000E-01 
SP   3    1.000000
   4.21175000E+01    1.13889000E-01   3.65114000E-02 
   9.62837000E+00    9.20811000E-01   2.37153000E-01 
   2.85332000E+00   -3.27447000E-03   8.19702000E-01 
SP   1    1.000000
   9.05661000E-01    1.00000000E+00   1.00000000E+00 
SP   1    1.000000
   2.55611000E-01    1.00000000E+00   1.00000000E+00 
SP   1    1.000000
   8.45000000E-02    1.00000000E+00   1.00000000E+00 
SP   1    1.000000
   2.54518072E-02    1.00000000E+00   1.00000000E+00 
D    1    1.000000
   1.29200000E+00    1.00000000E+00 

7    0
S    1    1.000000
   4.56324000E+03    1.96665000E-03 
S    1    1.000000
   6.82024000E+02    1.52306000E-02 
S    1    1.000000
   1.54973000E+02    7.61269000E-02 
S    1    1.000000
   4.44553000E+01    2.60801000E-01 
S    1    1.000000
   1.30290000E+01    6.16462000E-01 
S    1    1.000000
   1.82773000E+00    2.21006000E-01 
SP   3    1.000000
   2.09642000E+01    1.14660000E-01   4.02487000E-02 
   4.80331000E+00    9.19999000E-01   2.37594000E-01 
   1.45933000E+00   -3.03068000E-03   8.15854000E-01 
SP   1    1.000000
   4.83456000E-01    1.00000000E+00   1.00000000E+00 
SP   1    1.000000
   1.45585000E-01    1.00000000E+00   1.00000000E+00 
SP   1    1.000000
   4.38000000E-02    1.00000000E+00   1.00000000E+00 
SP   1    1.000000
   1.31927711E-02    1.00000000E+00   1.00000000E+00 
D    1    1.000000
   6.26000000E-01    1.00000000E+00 

8    0
S    1    1.000000
   8.58850000E+03    1.89515000E-03 
S    1    1.000000
   1.29723000E+03    1.43859000E-02 
S    1    1.000000
   2.99296000E+02    7.07320000E-02 
S    1    1.000000
   8.73771000E+01    2.40001000E-01 
S    1    1.000000
   2.56789000E+01    5.94797000E-01 
S    1    1.000000
   3.74004000E+00    2.80802000E-01 
SP   3    1.000000
   4.21175000E+01    1.13889000E-01   3.65114000E-02 
   9.62837000E+00    9.20811000E-01   2.37153000E-01 
   2.85332000E+00   -3.27447000E-03   8.19702000E-01 
SP   1    1.000000
   9.05661000E-01    1.00000000E+00   1.00000000E+00 
SP   1    1.000000
   2.55611000E-01    1.00000000E+00   1.00000000E+00 
SP   1    1.000000
   8.45000000E-02    1.00000000E+00   1.00000000E+00 
SP   1    1.000000
   2.54518072E-02    1.00000000E+00   1.00000000E+00 
D    1    1.000000
   1.29200000E+00    1.00000000E+00 

9    0
S    1    1.000000
   6.29348000E+03    1.96979000E-03 
S    1    1.000000
   9.49044000E+02    1.49613000E-02 
S    1    1.000000
   2.18776000E+02    7.35006000E-02 
S    1    1.000000
   6.36916000E+01    2.48937000E-01 
S    1    1.000000
   1.88282000E+01    6.02460000E-01 
S    1    1.000000
   2.72023000E+00    2.56202000E-01 
SP   3    1.000000
   3.06331000E+01    1.11906000E-01   3.83119000E-02 
   7.02614000E+00    9.21666000E-01   2.37403000E-01 
   2.11205000E+00   -2.56919000E-03   8.17592000E-01 
SP   1    1.000000
   6.84009000E-01    1.00000000E+00   1.00000000E+00 
SP   1    1.000000
   2.00878000E-01    1.00000000E+00   1.00000000E+00 
SP   1    1.000000
   6.39000000E-02    1.00000000E+00   1.00000000E+00 
SP   1    1.000000
   1.92469880E-02    1.00000000E+00   1.00000000E+00 
D    1    1.000000
   9.13000000E-01    1.00000000E+00 

10    0
S    1    1.000000
   6.29348000E+03    1.96979000E-03 
S    1    1.000000
   9.49044000E+02    1.49613000E-02 
S    1    1.000000
   2.18776000E+02    7.35006000E-02 
S    1    1.000000
   6.36916000E+01    2.48937000E-01 
S    1    1.000000
   1.88282000E+01    6.02460000E-01 
S    1    1.000000
   2.72023000E+00    2.56202000E-01 
SP   3    1.000000
   3.06331000E+01    1.11906000E-01   3.83119000E-02 
   7.02614000E+00    9.21666000E-01   2.37403000E-01 
   2.11205000E+00   -2.56919000E-03   8.17592000E-01 
SP   1    1.000000
   6.84009000E-01    1.00000000E+00   1.00000000E+00 
SP   1    1.000000
   2.00878000E-01    1.00000000E+00   1.00000000E+00 
SP   1    1.000000
   6.39000000E-02    1.00000000E+00   1.00000000E+00 
SP   1    1.000000
   1.92469880E-02    1.00000000E+00   1.00000000E+00 
D    1    1.000000
   9.13000000E-01    1.00000000E+00 

11    0
S    1    1.000000
   4.56324000E+03    1.96665000E-03 
S    1    1.000000
   6.82024000E+02    1.52306000E-02 
S    1    1.000000
   1.54973000E+02    7.61269000E-02 
S    1    1.000000
   4.44553000E+01    2.60801000E-01 
S    1    1.000000
   1.30290000E+01    6.16462000E-01 
S    1    1.000000
   1.82773000E+00    2.21006000E-01 
SP   3    1.000000
   2.09642000E+01    1.14660000E-01   4.02487000E-02 
   4.80331000E+00    9.19999000E-01   2.37594000E-01 
   1.45933000E+00   -3.03068000E-03   8.15854000E-01 
SP   1    1.000000
   4.83456000E-01    1.00000000E+00   1.00000000E+00 
SP   1    1.000000
   1.45585000E-01    1.00000000E+00   1.00000000E+00 
SP   1    1.000000
   4.38000000E-02    1.00000000E+00   1.00000000E+00 
SP   1    1.000000
   1.31927711E-02    1.00000000E+00   1.00000000E+00 
D    1    1.000000
   6.26000000E-01    1.00000000E+00 

12    0
S    3    1.000000
   3.38650000E+01    2.54938000E-02 
   5.09479000E+00    1.90373000E-01 
   1.15879000E+00    8.52161000E-01 
S    1    1.000000
   3.25840000E-01    1.00000000E+00 
S    1    1.000000
   1.02741000E-01    1.00000000E+00 
S    1    1.000000
   3.60000000E-02    1.00000000E+00 
P    1    1.000000
   7.50000000E-01    1.00000000E+00 

[MO]
Sym=X
Ene=0.522206
Spin=Alpha
Occup=1
1    1.15494261e-05
2    8.94490469e-05
3    0.000445939575
4    0.00153208689
5    0.00360883939
6    0.00126924817
7    0.00487103175
8    -2.90966199e-05
9    -1.1498284e-05
10    8.73820391e-16
11    0.000132657323
12    0.000127032914
13    0.00010026073
14    -1.94702129e-15
15    -6.16325492e-05
16    -9.56375319e-05
17    0.00011670303
18    4.69897288e-15
19    -0.00173839301
20    -2.89123913e-05
21    -0.000612150647
22    -2.79851562e-14
23    2.17298978e-05
24    9.68387478e-05
25    -0.000212745945
26    -5.35532281e-14
27    7.72398575e-05
28    6.60933005e-16
29    -2.10189182e-06
30    5.19139029e-16
31    1.30504755e-05
32    1.07485968e-05
33    -3.84064055e-05
34    0.000213628523
35    0.000321998344
36    1.77628712e-06
37    -4.40220692e-06
38    -6.22040722e-16
39    3.55976478e-06
40    9.41595351e-05
41    -3.45788784e-05
42    -1.73590119e-05
43    1.68166597e-05
44    2.24255557e-05
45    2.71557259e-16
46    3.45842033e-05
47    5.09700598e-05
48    0.000134285591
49    -0.000231376974
50    -1.21878987e-05
51    -4.13992697e-05
52    3.43305344e-16
53    2.97304346e-07
54    2.33101165e-06
55    1.14193622e-05
56    4.00091724e-05
57    8.63065486e-05
58    -4.81464947e-06
59    0.000146614085
60    -1.74758785e-05
61    -1.47857806e-06
62    -1.23739183e-15
63    7.55022378e-05
64    5.19037903e-05
65    1.48486014e-06
66    2.82820041e-16
67    -3.72625845e-05
68    -0.000482007585
69    0.000230829251
70    -3.66458245e-15
71    0.00058238486
72    -0.000133260567
73    -0.00025447349
74    -2.27194685e-14
75    -0.000472883523
76    -0.000183797933
77    -5.75889718e-05
78    -8.1674281e-15
79    5.1414714e-06
80    4.27795294e-16
81    2.00296014e-06
82    7.71860245e-16
83    4.29626719e-05
84    -1.83813712e-09
85    -6.8421322e-10
86    -9.99757707e-08
87    2.10170854e-08
88    -3.4168474e-06
89    -1.3129892e-05
90    6.83455882e-06
91    -1.06694107e-06
92    8.79988897e-07
93    -5.21021048e-16
94    3.75866766e-05
95    2.02463969e-05
96    -1.90532788e-06
97    -7.66622842e-16
98    -0.000179761556
99    -8.41704313e-05
100    6.5248475e-05
101    -3.41180721e-15
102    -0.000774793433
103    -0.00023710011
104    6.2727966e-05
105    3.24632423e-15
106    -0.00022808024
107    4.67559664e-05
108    0.000209022586
109    -1.35485749e-14
110    4.91217852e-06
111    6.7990341e-16
112    1.34770705e-06
113    -6.68090964e-17
114    5.10349662e-06
115    0.00110947495
116    0.00858898882
117    0.042846828
118    0.147100883
119    0.347527939
120    0.126437621
121    0.465447685
122    -0.000739851614
123    0.000492253642
124    2.10932385e-15
125    0.00162652854
126    0.000804892935
127    -0.000242642518
128    4.77658701e-15
129    0.00153078849
130    -0.000292311447
131    0.000410717551
132    3.98180856e-15
133    -0.00234697342
134    0.000154376816
135    0.00241567145
136    -3.1131803e-14
137    -0.000257953934
138    -0.000295511654
139    4.43956031e-05
140    -2.04297276e-15
141    0.000335199185
142    2.10826761e-16
143    -0.000254434687
144    1.63715806e-16
145    -4.9361713e-05
146    -3.61820603e-07
147    -2.64860124e-06
148    -1.39226138e-05
149    -4.43815181e-05
150    -0.000134712146
151    -0.000192742953
152    -0.000186050593
153    -0.000205190676
154    -0.000137250279
155    1.88010842e-15
156    0.000642093396
157    -0.000558603066
158    -0.000371995839
159    1.65700997e-15
160    -0.000263462688
161    0.00022881266
162    0.000115242326
163    2.63775203e-15
164    -0.000365528976
165    -7.09899429e-05
166    -0.000188909158
167    1.18399834e-14
168    -0.00220905779
169    0.000591825596
170    6.40773795e-05
171    -7.4081298e-15
172    0.000256585999
173    -2.38575863e-16
174    -0.000114613417
175    -4.04587909e-16
176    0.000114041414
177    -2.49769655e-07
178    -1.71715692e-06
179    -9.84895802e-06
180    -2.83875171e-05
181    -0.000117329622
182    -0.000258735294
183    -3.37809564e-05
184    4.4907162e-05
185    -3.8671056e-05
186    -5.80663919e-17
187    0.000571146558
188    0.00069407517
189    -0.000329351164
190    4.55615526e-15
191    5.12459093e-05
192    -0.000161745035
193    -0.000156287857
194    -5.04477899e-15
195    -0.00125271554
196    -0.00101272734
197    -2.21351601e-05
198    2.58695132e-14
199    0.00044083019
200    0.000646556457
201    9.07110029e-05
202    1.26029354e-14
203    -0.000268267338
204    -9.06335881e-17
205    -0.000123792423
206    7.85832337e-16
207    0.00021612232
208    -1.59366286e-09
209    2.81852938e-08
210    -1.52880017e-07
211    5.96657097e-07
212    -8.7463891e-06
213    -3.88161022e-05
214    2.28231465e-05
215    -6.29145683e-06
216    -2.06404554e-06
217    -1.65243602e-15
218    7.6931615e-05
219    3.52449858e-05
220    4.72929642e-06
221    -3.67263266e-16
222    -1.26345271e-05
223    -2.67371536e-05
224    3.64343808e-05
225    -5.52316344e-15
226    9.9245539e-05
227    0.000450728301
228    8.10286467e-05
229    9.15691854e-15
230    0.000727706904
231    -2.59252918e-05
232    0.000351998864
233    4.4309036e-14
234    -1.27186604e-05
235    2.36759648e-16
236    -5.25643647e-06
237    1.32949073e-16
238    -1.7651904e-06
239    -1.09639253e-06
240    -8.53137838e-06
241    -4.23344388e-05
242    -0.000146806445
243    -0.000339929108
244    -0.000161080731
245    -0.000507327569
246    -2.60170836e-06
247    8.80009961e-05
248    1.30449467e-15
249    0.000291225113
250    7.17814172e-05
251    0.000488544248
252    2.39932794e-15
253    -0.000212336332
254    5.84685853e-05
255    -0.000277143474
256    1.19011917e-15
257    0.00602065035
258    -0.000261235722
259    0.00142091007
260    2.93157633e-14
261    0.000619874861
262    9.65134007e-05
263    0.000363722517
264    3.27706585e-14
265    3.67767959e-05
266    7.75850138e-16
267    -2.131395e-05
268    8.72461858e-18
269    -0.000282141263
270    2.42186899e-05
271    8.99895878e-05
272    -0.000184211416
273    0.000262828617
274    -3.66446338e-05
275    7.15050246e-05
276    5.02193533e-16
[5D]