[Molden Format]
[Atoms] (Angs)
  C      1    6     -0.00714236     -1.70213747     -0.00000000
  H      2    1     -2.06882847     -1.44022412      0.00000000
  H      3    1     -0.12337987     -2.77567521      0.00000000
  H      4    1      0.04651892      1.98813947     -0.00000000
  C      5    6     -1.21953563      0.40211669      0.00000000
  O      6    8     -2.25921553      1.03043814      0.00000000
  C      7    6      1.28797806      0.34644937     -0.00000000
  O      8    8      2.31273661      1.00537216     -0.00000000
  N      9    7      0.03446295      0.97739857     -0.00000000
  N     10    7     -1.17287765     -0.98229824      0.00000000
  C     11    6      1.20107039     -1.10433419     -0.00000000
  H     12    1      2.11220096     -1.67699125     -0.00000000
[GTO]
1    0
S    1    1.000000
   4.56324000E+03    1.96665000E-03 
S    1    1.000000
   6.82024000E+02    1.52306000E-02 
S    1    1.000000
   1.54973000E+02    7.61269000E-02 
S    1    1.000000
   4.44553000E+01    2.60801000E-01 
S    1    1.000000
   1.30290000E+01    6.16462000E-01 
S    1    1.000000
   1.82773000E+00    2.21006000E-01 
SP   3    1.000000
   2.09642000E+01    1.14660000E-01   4.02487000E-02 
   4.80331000E+00    9.19999000E-01   2.37594000E-01 
   1.45933000E+00   -3.03068000E-03   8.15854000E-01 
SP   1    1.000000
   4.83456000E-01    1.00000000E+00   1.00000000E+00 
SP   1    1.000000
   1.45585000E-01    1.00000000E+00   1.00000000E+00 
SP   1    1.000000
   4.38000000E-02    1.00000000E+00   1.00000000E+00 
SP   1    1.000000
   1.31927711E-02    1.00000000E+00   1.00000000E+00 
D    1    1.000000
   6.26000000E-01    1.00000000E+00 

2    0
S    3    1.000000
   3.38650000E+01    2.54938000E-02 
   5.09479000E+00    1.90373000E-01 
   1.15879000E+00    8.52161000E-01 
S    1    1.000000
   3.25840000E-01    1.00000000E+00 
S    1    1.000000
   1.02741000E-01    1.00000000E+00 
S    1    1.000000
   3.60000000E-02    1.00000000E+00 
P    1    1.000000
   7.50000000E-01    1.00000000E+00 

3    0
S    3    1.000000
   3.38650000E+01    2.54938000E-02 
   5.09479000E+00    1.90373000E-01 
   1.15879000E+00    8.52161000E-01 
S    1    1.000000
   3.25840000E-01    1.00000000E+00 
S    1    1.000000
   1.02741000E-01    1.00000000E+00 
S    1    1.000000
   3.60000000E-02    1.00000000E+00 
P    1    1.000000
   7.50000000E-01    1.00000000E+00 

4    0
S    3    1.000000
   3.38650000E+01    2.54938000E-02 
   5.09479000E+00    1.90373000E-01 
   1.15879000E+00    8.52161000E-01 
S    1    1.000000
   3.25840000E-01    1.00000000E+00 
S    1    1.000000
   1.02741000E-01    1.00000000E+00 
S    1    1.000000
   3.60000000E-02    1.00000000E+00 
P    1    1.000000
   7.50000000E-01    1.00000000E+00 

5    0
S    1    1.000000
   4.56324000E+03    1.96665000E-03 
S    1    1.000000
   6.82024000E+02    1.52306000E-02 
S    1    1.000000
   1.54973000E+02    7.61269000E-02 
S    1    1.000000
   4.44553000E+01    2.60801000E-01 
S    1    1.000000
   1.30290000E+01    6.16462000E-01 
S    1    1.000000
   1.82773000E+00    2.21006000E-01 
SP   3    1.000000
   2.09642000E+01    1.14660000E-01   4.02487000E-02 
   4.80331000E+00    9.19999000E-01   2.37594000E-01 
   1.45933000E+00   -3.03068000E-03   8.15854000E-01 
SP   1    1.000000
   4.83456000E-01    1.00000000E+00   1.00000000E+00 
SP   1    1.000000
   1.45585000E-01    1.00000000E+00   1.00000000E+00 
SP   1    1.000000
   4.38000000E-02    1.00000000E+00   1.00000000E+00 
SP   1    1.000000
   1.31927711E-02    1.00000000E+00   1.00000000E+00 
D    1    1.000000
   6.26000000E-01    1.00000000E+00 

6    0
S    1    1.000000
   8.58850000E+03    1.89515000E-03 
S    1    1.000000
   1.29723000E+03    1.43859000E-02 
S    1    1.000000
   2.99296000E+02    7.07320000E-02 
S    1    1.000000
   8.73771000E+01    2.40001000E-01 
S    1    1.000000
   2.56789000E+01    5.94797000E-01 
S    1    1.000000
   3.74004000E+00    2.80802000E-01 
SP   3    1.000000
   4.21175000E+01    1.13889000E-01   3.65114000E-02 
   9.62837000E+00    9.20811000E-01   2.37153000E-01 
   2.85332000E+00   -3.27447000E-03   8.19702000E-01 
SP   1    1.000000
   9.05661000E-01    1.00000000E+00   1.00000000E+00 
SP   1    1.000000
   2.55611000E-01    1.00000000E+00   1.00000000E+00 
SP   1    1.000000
   8.45000000E-02    1.00000000E+00   1.00000000E+00 
SP   1    1.000000
   2.54518072E-02    1.00000000E+00   1.00000000E+00 
D    1    1.000000
   1.29200000E+00    1.00000000E+00 

7    0
S    1    1.000000
   4.56324000E+03    1.96665000E-03 
S    1    1.000000
   6.82024000E+02    1.52306000E-02 
S    1    1.000000
   1.54973000E+02    7.61269000E-02 
S    1    1.000000
   4.44553000E+01    2.60801000E-01 
S    1    1.000000
   1.30290000E+01    6.16462000E-01 
S    1    1.000000
   1.82773000E+00    2.21006000E-01 
SP   3    1.000000
   2.09642000E+01    1.14660000E-01   4.02487000E-02 
   4.80331000E+00    9.19999000E-01   2.37594000E-01 
   1.45933000E+00   -3.03068000E-03   8.15854000E-01 
SP   1    1.000000
   4.83456000E-01    1.00000000E+00   1.00000000E+00 
SP   1    1.000000
   1.45585000E-01    1.00000000E+00   1.00000000E+00 
SP   1    1.000000
   4.38000000E-02    1.00000000E+00   1.00000000E+00 
SP   1    1.000000
   1.31927711E-02    1.00000000E+00   1.00000000E+00 
D    1    1.000000
   6.26000000E-01    1.00000000E+00 

8    0
S    1    1.000000
   8.58850000E+03    1.89515000E-03 
S    1    1.000000
   1.29723000E+03    1.43859000E-02 
S    1    1.000000
   2.99296000E+02    7.07320000E-02 
S    1    1.000000
   8.73771000E+01    2.40001000E-01 
S    1    1.000000
   2.56789000E+01    5.94797000E-01 
S    1    1.000000
   3.74004000E+00    2.80802000E-01 
SP   3    1.000000
   4.21175000E+01    1.13889000E-01   3.65114000E-02 
   9.62837000E+00    9.20811000E-01   2.37153000E-01 
   2.85332000E+00   -3.27447000E-03   8.19702000E-01 
SP   1    1.000000
   9.05661000E-01    1.00000000E+00   1.00000000E+00 
SP   1    1.000000
   2.55611000E-01    1.00000000E+00   1.00000000E+00 
SP   1    1.000000
   8.45000000E-02    1.00000000E+00   1.00000000E+00 
SP   1    1.000000
   2.54518072E-02    1.00000000E+00   1.00000000E+00 
D    1    1.000000
   1.29200000E+00    1.00000000E+00 

9    0
S    1    1.000000
   6.29348000E+03    1.96979000E-03 
S    1    1.000000
   9.49044000E+02    1.49613000E-02 
S    1    1.000000
   2.18776000E+02    7.35006000E-02 
S    1    1.000000
   6.36916000E+01    2.48937000E-01 
S    1    1.000000
   1.88282000E+01    6.02460000E-01 
S    1    1.000000
   2.72023000E+00    2.56202000E-01 
SP   3    1.000000
   3.06331000E+01    1.11906000E-01   3.83119000E-02 
   7.02614000E+00    9.21666000E-01   2.37403000E-01 
   2.11205000E+00   -2.56919000E-03   8.17592000E-01 
SP   1    1.000000
   6.84009000E-01    1.00000000E+00   1.00000000E+00 
SP   1    1.000000
   2.00878000E-01    1.00000000E+00   1.00000000E+00 
SP   1    1.000000
   6.39000000E-02    1.00000000E+00   1.00000000E+00 
SP   1    1.000000
   1.92469880E-02    1.00000000E+00   1.00000000E+00 
D    1    1.000000
   9.13000000E-01    1.00000000E+00 

10    0
S    1    1.000000
   6.29348000E+03    1.96979000E-03 
S    1    1.000000
   9.49044000E+02    1.49613000E-02 
S    1    1.000000
   2.18776000E+02    7.35006000E-02 
S    1    1.000000
   6.36916000E+01    2.48937000E-01 
S    1    1.000000
   1.88282000E+01    6.02460000E-01 
S    1    1.000000
   2.72023000E+00    2.56202000E-01 
SP   3    1.000000
   3.06331000E+01    1.11906000E-01   3.83119000E-02 
   7.02614000E+00    9.21666000E-01   2.37403000E-01 
   2.11205000E+00   -2.56919000E-03   8.17592000E-01 
SP   1    1.000000
   6.84009000E-01    1.00000000E+00   1.00000000E+00 
SP   1    1.000000
   2.00878000E-01    1.00000000E+00   1.00000000E+00 
SP   1    1.000000
   6.39000000E-02    1.00000000E+00   1.00000000E+00 
SP   1    1.000000
   1.92469880E-02    1.00000000E+00   1.00000000E+00 
D    1    1.000000
   9.13000000E-01    1.00000000E+00 

11    0
S    1    1.000000
   4.56324000E+03    1.96665000E-03 
S    1    1.000000
   6.82024000E+02    1.52306000E-02 
S    1    1.000000
   1.54973000E+02    7.61269000E-02 
S    1    1.000000
   4.44553000E+01    2.60801000E-01 
S    1    1.000000
   1.30290000E+01    6.16462000E-01 
S    1    1.000000
   1.82773000E+00    2.21006000E-01 
SP   3    1.000000
   2.09642000E+01    1.14660000E-01   4.02487000E-02 
   4.80331000E+00    9.19999000E-01   2.37594000E-01 
   1.45933000E+00   -3.03068000E-03   8.15854000E-01 
SP   1    1.000000
   4.83456000E-01    1.00000000E+00   1.00000000E+00 
SP   1    1.000000
   1.45585000E-01    1.00000000E+00   1.00000000E+00 
SP   1    1.000000
   4.38000000E-02    1.00000000E+00   1.00000000E+00 
SP   1    1.000000
   1.31927711E-02    1.00000000E+00   1.00000000E+00 
D    1    1.000000
   6.26000000E-01    1.00000000E+00 

12    0
S    3    1.000000
   3.38650000E+01    2.54938000E-02 
   5.09479000E+00    1.90373000E-01 
   1.15879000E+00    8.52161000E-01 
S    1    1.000000
   3.25840000E-01    1.00000000E+00 
S    1    1.000000
   1.02741000E-01    1.00000000E+00 
S    1    1.000000
   3.60000000E-02    1.00000000E+00 
P    1    1.000000
   7.50000000E-01    1.00000000E+00 

[MO]
Sym=X
Ene=0.00116
Spin=Alpha
Occup=1
1    0.000989046689
2    0.00765681867
3    0.0381955232
4    0.131137072
5    0.309789548
6    0.112987985
7    0.414832738
8    -0.000991354878
9    0.00028586275
10    -1.22851909e-15
11    0.00142005833
12    0.000885349335
13    -0.000113460493
14    2.82098296e-15
15    0.00140827408
16    -0.000226985011
17    0.000747328704
18    -9.75142042e-15
19    0.00139795498
20    -0.000653741405
21    0.000716469711
22    8.76038237e-14
23    -0.000164567425
24    4.1720903e-05
25    6.84572794e-05
26    -3.49590592e-14
27    0.000288178357
28    -6.20466831e-16
29    -0.000212609809
30    -1.37279856e-16
31    6.81003131e-05
32    1.83927013e-05
33    6.03298503e-05
34    -6.66909323e-05
35    -0.000252148004
36    3.75055881e-05
37    1.4205261e-05
38    -3.18215866e-17
39    0.000337334163
40    0.000371402566
41    0.0002446608
42    8.18405126e-05
43    2.8822079e-05
44    0.000263108508
45    -2.28824527e-16
46    -7.06934344e-06
47    -7.87989553e-05
48    0.000164544838
49    0.000325390716
50    1.07451304e-05
51    2.65675774e-05
52    4.61378318e-16
53    -8.85260777e-05
54    -0.000685307922
55    -0.0034188323
56    -0.0117371372
57    -0.0277339266
58    -0.0101100908
59    -0.0371259174
60    -4.79747857e-05
61    5.54392125e-05
62    2.35207643e-15
63    -6.7402159e-05
64    5.23226914e-05
65    -0.000114251135
66    9.51481036e-17
67    0.000128214761
68    -0.000368502364
69    0.000263728958
70    5.00191632e-15
71    0.000376485261
72    -0.000163437294
73    0.000595266739
74    9.80993433e-14
75    0.0007187659
76    0.000242651259
77    2.26892811e-05
78    7.59658771e-14
79    3.45461556e-06
80    3.07812216e-16
81    2.16744522e-05
82    -9.52418583e-16
83    -7.17195512e-05
84    2.63213465e-08
85    2.09722278e-07
86    9.74531818e-07
87    3.55584269e-06
88    6.06976508e-06
89    -2.98490017e-06
90    2.45033862e-05
91    -2.00640572e-05
92    1.15365867e-05
93    1.53746182e-15
94    -2.20456595e-06
95    -2.83556913e-05
96    3.29319673e-06
97    1.48201846e-15
98    -0.000169509656
99    -8.28071102e-05
100    3.72834681e-05
101    7.60342547e-15
102    -0.000569439985
103    -5.75397817e-05
104    0.000104758644
105    -8.32595431e-15
106    -0.00103802379
107    -0.000257977042
108    -6.29429545e-05
109    -1.85557492e-14
110    1.48291211e-05
111    -9.98367349e-16
112    9.27286392e-06
113    3.96882938e-16
114    -1.72466825e-05
115    -0.000492974263
116    -0.0038163109
117    -0.0190382736
118    -0.0653605718
119    -0.154426713
120    -0.0562242054
121    -0.206783549
122    0.00033390181
123    -0.000192449232
124    -7.84147883e-16
125    -0.000661140918
126    -0.000379812859
127    2.29481294e-05
128    -2.10426879e-15
129    -0.000469363949
130    -9.25346086e-05
131    -0.00033524917
132    -5.21943862e-15
133    0.000709158873
134    0.0001662312
135    -0.000833082033
136    9.77234568e-14
137    0.000115469503
138    0.000315247361
139    -7.43433469e-05
140    -2.79701527e-14
141    -0.000118075195
142    -2.37609116e-16
143    0.000109645334
144    -3.8783368e-16
145    -1.45338404e-05
146    1.74931803e-07
147    1.28085885e-06
148    6.7225337e-06
149    2.14468672e-05
150    6.51590319e-05
151    9.17690144e-05
152    8.63519173e-05
153    9.1423577e-05
154    6.23969893e-05
155    -4.49037533e-16
156    -0.000297393924
157    0.00024484273
158    0.000148574846
159    -3.23112528e-15
160    0.000232811037
161    -0.000110881628
162    -5.52623362e-05
163    4.75608891e-15
164    0.000148218894
165    4.38991258e-06
166    6.02768125e-05
167    -2.15310317e-14
168    0.00106871991
169    -0.000266644922
170    -8.45609255e-05
171    7.95793504e-15
172    -0.000110916269
173    4.93891941e-17
174    4.97628622e-05
175    -4.51560171e-17
176    -5.61520807e-05
177    1.3227203e-07
178    9.48293821e-07
179    5.12624663e-06
180    1.58105924e-05
181    5.42437852e-05
182    0.000101162748
183    4.05854946e-05
184    -1.30681858e-05
185    2.73810811e-05
186    1.9639547e-15
187    -0.000236574499
188    -0.00026621102
189    0.000143740988
190    -5.43311074e-15
191    9.90112418e-07
192    2.02390229e-05
193    9.79864639e-05
194    1.89757363e-14
195    0.000638252059
196    0.000572470949
197    -0.000486319416
198    -6.86779365e-14
199    0.000452831064
200    -0.000566544776
201    -0.000148759093
202    -6.51154276e-14
203    0.000107687164
204    -1.77917649e-16
205    6.04825761e-05
206    -7.007416e-16
207    -0.000107498903
208    -2.30677478e-07
209    -1.63226253e-06
210    -8.99077754e-06
211    -2.71821343e-05
212    -9.96180235e-05
213    -0.000208960684
214    -5.65026327e-05
215    6.38213806e-05
216    -4.23196467e-05
217    3.24061552e-15
218    0.000522504407
219    0.000640324615
220    -0.000454457797
221    -5.99073068e-15
222    -8.32954453e-05
223    -1.37009595e-05
224    6.42364899e-05
225    2.23381551e-14
226    -0.00122486048
227    -0.000628907485
228    0.000304222094
229    -6.48323738e-14
230    -0.000872548236
231    -0.000265679511
232    -0.000139039765
233    -4.09367094e-14
234    -0.000285511244
235    -5.79335379e-17
236    -0.000105908695
237    7.25982163e-17
238    0.000188739879
239    -4.11066214e-05
240    -0.000318357399
241    -0.00158727361
242    -0.00545331779
243    -0.0128490619
244    -0.00461506434
245    -0.0173470014
246    -0.000127507191
247    -0.00011325604
248    -4.40126309e-16
249    -5.21604237e-05
250    -0.000239234241
251    -0.000308051355
252    -3.38036538e-15
253    -0.000703679371
254    0.000544833374
255    -0.000141858936
256    8.23155204e-15
257    -0.00139842946
258    6.09918918e-05
259    -0.00119157772
260    -9.62793599e-14
261    -0.000477030365
262    -0.000205230918
263    -0.000264271957
264    4.65382085e-14
265    0.000126140243
266    4.36196793e-17
267    5.86014168e-05
268    -5.81433814e-16
269    0.00025605659
270    -2.37546172e-06
271    -4.13419312e-05
272    -0.000252387138
273    -0.000381419016
274    -4.9129867e-05
275    -5.14742146e-05
276    -8.42984574e-16
[5D]