[Molden Format]
[Atoms] (Angs)
  C      1    6     -0.00714236     -1.70213747     -0.00000000
  H      2    1     -2.06882847     -1.44022412      0.00000000
  H      3    1     -0.12337987     -2.77567521      0.00000000
  H      4    1      0.04651892      1.98813947     -0.00000000
  C      5    6     -1.21953563      0.40211669      0.00000000
  O      6    8     -2.25921553      1.03043814      0.00000000
  C      7    6      1.28797806      0.34644937     -0.00000000
  O      8    8      2.31273661      1.00537216     -0.00000000
  N      9    7      0.03446295      0.97739857     -0.00000000
  N     10    7     -1.17287765     -0.98229824      0.00000000
  C     11    6      1.20107039     -1.10433419     -0.00000000
  H     12    1      2.11220096     -1.67699125     -0.00000000
[GTO]
1    0
S    1    1.000000
   4.56324000E+03    1.96665000E-03 
S    1    1.000000
   6.82024000E+02    1.52306000E-02 
S    1    1.000000
   1.54973000E+02    7.61269000E-02 
S    1    1.000000
   4.44553000E+01    2.60801000E-01 
S    1    1.000000
   1.30290000E+01    6.16462000E-01 
S    1    1.000000
   1.82773000E+00    2.21006000E-01 
SP   3    1.000000
   2.09642000E+01    1.14660000E-01   4.02487000E-02 
   4.80331000E+00    9.19999000E-01   2.37594000E-01 
   1.45933000E+00   -3.03068000E-03   8.15854000E-01 
SP   1    1.000000
   4.83456000E-01    1.00000000E+00   1.00000000E+00 
SP   1    1.000000
   1.45585000E-01    1.00000000E+00   1.00000000E+00 
SP   1    1.000000
   4.38000000E-02    1.00000000E+00   1.00000000E+00 
SP   1    1.000000
   1.31927711E-02    1.00000000E+00   1.00000000E+00 
D    1    1.000000
   6.26000000E-01    1.00000000E+00 

2    0
S    3    1.000000
   3.38650000E+01    2.54938000E-02 
   5.09479000E+00    1.90373000E-01 
   1.15879000E+00    8.52161000E-01 
S    1    1.000000
   3.25840000E-01    1.00000000E+00 
S    1    1.000000
   1.02741000E-01    1.00000000E+00 
S    1    1.000000
   3.60000000E-02    1.00000000E+00 
P    1    1.000000
   7.50000000E-01    1.00000000E+00 

3    0
S    3    1.000000
   3.38650000E+01    2.54938000E-02 
   5.09479000E+00    1.90373000E-01 
   1.15879000E+00    8.52161000E-01 
S    1    1.000000
   3.25840000E-01    1.00000000E+00 
S    1    1.000000
   1.02741000E-01    1.00000000E+00 
S    1    1.000000
   3.60000000E-02    1.00000000E+00 
P    1    1.000000
   7.50000000E-01    1.00000000E+00 

4    0
S    3    1.000000
   3.38650000E+01    2.54938000E-02 
   5.09479000E+00    1.90373000E-01 
   1.15879000E+00    8.52161000E-01 
S    1    1.000000
   3.25840000E-01    1.00000000E+00 
S    1    1.000000
   1.02741000E-01    1.00000000E+00 
S    1    1.000000
   3.60000000E-02    1.00000000E+00 
P    1    1.000000
   7.50000000E-01    1.00000000E+00 

5    0
S    1    1.000000
   4.56324000E+03    1.96665000E-03 
S    1    1.000000
   6.82024000E+02    1.52306000E-02 
S    1    1.000000
   1.54973000E+02    7.61269000E-02 
S    1    1.000000
   4.44553000E+01    2.60801000E-01 
S    1    1.000000
   1.30290000E+01    6.16462000E-01 
S    1    1.000000
   1.82773000E+00    2.21006000E-01 
SP   3    1.000000
   2.09642000E+01    1.14660000E-01   4.02487000E-02 
   4.80331000E+00    9.19999000E-01   2.37594000E-01 
   1.45933000E+00   -3.03068000E-03   8.15854000E-01 
SP   1    1.000000
   4.83456000E-01    1.00000000E+00   1.00000000E+00 
SP   1    1.000000
   1.45585000E-01    1.00000000E+00   1.00000000E+00 
SP   1    1.000000
   4.38000000E-02    1.00000000E+00   1.00000000E+00 
SP   1    1.000000
   1.31927711E-02    1.00000000E+00   1.00000000E+00 
D    1    1.000000
   6.26000000E-01    1.00000000E+00 

6    0
S    1    1.000000
   8.58850000E+03    1.89515000E-03 
S    1    1.000000
   1.29723000E+03    1.43859000E-02 
S    1    1.000000
   2.99296000E+02    7.07320000E-02 
S    1    1.000000
   8.73771000E+01    2.40001000E-01 
S    1    1.000000
   2.56789000E+01    5.94797000E-01 
S    1    1.000000
   3.74004000E+00    2.80802000E-01 
SP   3    1.000000
   4.21175000E+01    1.13889000E-01   3.65114000E-02 
   9.62837000E+00    9.20811000E-01   2.37153000E-01 
   2.85332000E+00   -3.27447000E-03   8.19702000E-01 
SP   1    1.000000
   9.05661000E-01    1.00000000E+00   1.00000000E+00 
SP   1    1.000000
   2.55611000E-01    1.00000000E+00   1.00000000E+00 
SP   1    1.000000
   8.45000000E-02    1.00000000E+00   1.00000000E+00 
SP   1    1.000000
   2.54518072E-02    1.00000000E+00   1.00000000E+00 
D    1    1.000000
   1.29200000E+00    1.00000000E+00 

7    0
S    1    1.000000
   4.56324000E+03    1.96665000E-03 
S    1    1.000000
   6.82024000E+02    1.52306000E-02 
S    1    1.000000
   1.54973000E+02    7.61269000E-02 
S    1    1.000000
   4.44553000E+01    2.60801000E-01 
S    1    1.000000
   1.30290000E+01    6.16462000E-01 
S    1    1.000000
   1.82773000E+00    2.21006000E-01 
SP   3    1.000000
   2.09642000E+01    1.14660000E-01   4.02487000E-02 
   4.80331000E+00    9.19999000E-01   2.37594000E-01 
   1.45933000E+00   -3.03068000E-03   8.15854000E-01 
SP   1    1.000000
   4.83456000E-01    1.00000000E+00   1.00000000E+00 
SP   1    1.000000
   1.45585000E-01    1.00000000E+00   1.00000000E+00 
SP   1    1.000000
   4.38000000E-02    1.00000000E+00   1.00000000E+00 
SP   1    1.000000
   1.31927711E-02    1.00000000E+00   1.00000000E+00 
D    1    1.000000
   6.26000000E-01    1.00000000E+00 

8    0
S    1    1.000000
   8.58850000E+03    1.89515000E-03 
S    1    1.000000
   1.29723000E+03    1.43859000E-02 
S    1    1.000000
   2.99296000E+02    7.07320000E-02 
S    1    1.000000
   8.73771000E+01    2.40001000E-01 
S    1    1.000000
   2.56789000E+01    5.94797000E-01 
S    1    1.000000
   3.74004000E+00    2.80802000E-01 
SP   3    1.000000
   4.21175000E+01    1.13889000E-01   3.65114000E-02 
   9.62837000E+00    9.20811000E-01   2.37153000E-01 
   2.85332000E+00   -3.27447000E-03   8.19702000E-01 
SP   1    1.000000
   9.05661000E-01    1.00000000E+00   1.00000000E+00 
SP   1    1.000000
   2.55611000E-01    1.00000000E+00   1.00000000E+00 
SP   1    1.000000
   8.45000000E-02    1.00000000E+00   1.00000000E+00 
SP   1    1.000000
   2.54518072E-02    1.00000000E+00   1.00000000E+00 
D    1    1.000000
   1.29200000E+00    1.00000000E+00 

9    0
S    1    1.000000
   6.29348000E+03    1.96979000E-03 
S    1    1.000000
   9.49044000E+02    1.49613000E-02 
S    1    1.000000
   2.18776000E+02    7.35006000E-02 
S    1    1.000000
   6.36916000E+01    2.48937000E-01 
S    1    1.000000
   1.88282000E+01    6.02460000E-01 
S    1    1.000000
   2.72023000E+00    2.56202000E-01 
SP   3    1.000000
   3.06331000E+01    1.11906000E-01   3.83119000E-02 
   7.02614000E+00    9.21666000E-01   2.37403000E-01 
   2.11205000E+00   -2.56919000E-03   8.17592000E-01 
SP   1    1.000000
   6.84009000E-01    1.00000000E+00   1.00000000E+00 
SP   1    1.000000
   2.00878000E-01    1.00000000E+00   1.00000000E+00 
SP   1    1.000000
   6.39000000E-02    1.00000000E+00   1.00000000E+00 
SP   1    1.000000
   1.92469880E-02    1.00000000E+00   1.00000000E+00 
D    1    1.000000
   9.13000000E-01    1.00000000E+00 

10    0
S    1    1.000000
   6.29348000E+03    1.96979000E-03 
S    1    1.000000
   9.49044000E+02    1.49613000E-02 
S    1    1.000000
   2.18776000E+02    7.35006000E-02 
S    1    1.000000
   6.36916000E+01    2.48937000E-01 
S    1    1.000000
   1.88282000E+01    6.02460000E-01 
S    1    1.000000
   2.72023000E+00    2.56202000E-01 
SP   3    1.000000
   3.06331000E+01    1.11906000E-01   3.83119000E-02 
   7.02614000E+00    9.21666000E-01   2.37403000E-01 
   2.11205000E+00   -2.56919000E-03   8.17592000E-01 
SP   1    1.000000
   6.84009000E-01    1.00000000E+00   1.00000000E+00 
SP   1    1.000000
   2.00878000E-01    1.00000000E+00   1.00000000E+00 
SP   1    1.000000
   6.39000000E-02    1.00000000E+00   1.00000000E+00 
SP   1    1.000000
   1.92469880E-02    1.00000000E+00   1.00000000E+00 
D    1    1.000000
   9.13000000E-01    1.00000000E+00 

11    0
S    1    1.000000
   4.56324000E+03    1.96665000E-03 
S    1    1.000000
   6.82024000E+02    1.52306000E-02 
S    1    1.000000
   1.54973000E+02    7.61269000E-02 
S    1    1.000000
   4.44553000E+01    2.60801000E-01 
S    1    1.000000
   1.30290000E+01    6.16462000E-01 
S    1    1.000000
   1.82773000E+00    2.21006000E-01 
SP   3    1.000000
   2.09642000E+01    1.14660000E-01   4.02487000E-02 
   4.80331000E+00    9.19999000E-01   2.37594000E-01 
   1.45933000E+00   -3.03068000E-03   8.15854000E-01 
SP   1    1.000000
   4.83456000E-01    1.00000000E+00   1.00000000E+00 
SP   1    1.000000
   1.45585000E-01    1.00000000E+00   1.00000000E+00 
SP   1    1.000000
   4.38000000E-02    1.00000000E+00   1.00000000E+00 
SP   1    1.000000
   1.31927711E-02    1.00000000E+00   1.00000000E+00 
D    1    1.000000
   6.26000000E-01    1.00000000E+00 

12    0
S    3    1.000000
   3.38650000E+01    2.54938000E-02 
   5.09479000E+00    1.90373000E-01 
   1.15879000E+00    8.52161000E-01 
S    1    1.000000
   3.25840000E-01    1.00000000E+00 
S    1    1.000000
   1.02741000E-01    1.00000000E+00 
S    1    1.000000
   3.60000000E-02    1.00000000E+00 
P    1    1.000000
   7.50000000E-01    1.00000000E+00 

[MO]
Sym=X
Ene=0.543559
Spin=Alpha
Occup=1
1    0.00110927465
2    0.00858759413
3    0.0428385072
4    0.147078324
5    0.347443236
6    0.126693837
7    0.465270138
8    -0.00111376233
9    0.000315479484
10    -8.67234535e-16
11    0.00167710911
12    0.00106800776
13    -6.11225021e-05
14    2.31957584e-15
15    0.00146914719
16    -0.000305553948
17    0.000854496961
18    -8.53962618e-15
19    0.000869590232
20    -0.000704211698
21    0.000550042154
22    8.72479766e-14
23    -0.000153075941
24    7.62328166e-05
25    -3.49195693e-05
26    -6.45051498e-14
27    0.000367754972
28    -3.2063235e-16
29    -0.000237720765
30    7.95160347e-17
31    9.11929535e-05
32    2.92803398e-05
33    5.1314915e-05
34    4.03743777e-05
35    -9.52778441e-05
36    4.68990152e-05
37    1.54318971e-05
38    -2.40671256e-16
39    0.00038040429
40    0.00046532035
41    0.000236437926
42    0.000133770532
43    4.23318914e-05
44    0.000308697854
45    -1.35270947e-16
46    1.30065458e-05
47    -5.61088212e-05
48    0.000243062575
49    0.000251745434
50    5.4836477e-06
51    4.05736754e-06
52    7.08407398e-16
53    3.42877521e-06
54    2.65758304e-05
55    0.000132349223
56    0.000455239925
57    0.00106622173
58    0.000343197103
59    0.00146382344
60    -3.36115866e-06
61    1.9944134e-05
62    2.25793572e-15
63    0.000115802716
64    1.74080266e-05
65    -8.2969215e-05
66    2.23001228e-16
67    0.000230638257
68    -0.000641289729
69    0.000403301326
70    4.79548175e-15
71    0.000681027366
72    -0.00032442131
73    0.000575050708
74    9.94899914e-14
75    0.000498188706
76    0.000172794511
77    7.82351619e-06
78    8.00396525e-14
79    -1.89482117e-05
80    5.0341877e-16
81    3.33507163e-06
82    -6.90970723e-16
83    -4.3623129e-05
84    -3.05687299e-09
85    3.18061912e-09
86    -1.76297882e-07
87    1.15899495e-07
88    -6.64800873e-06
89    -2.64543629e-05
90    1.40731107e-05
91    -3.55325151e-06
92    1.54968414e-06
93    1.52432745e-15
94    7.22579601e-05
95    2.84049696e-05
96    -2.7005725e-05
97    1.47000842e-15
98    -0.000308069308
99    -0.000159128005
100    8.84369753e-05
101    6.83357711e-15
102    -0.00103769535
103    -0.000163793211
104    0.000138266913
105    -7.74130892e-15
106    -0.00136122293
107    -0.000275239561
108    5.03743433e-05
109    -2.68549875e-14
110    -3.01167601e-06
111    -7.69583058e-16
112    3.75965312e-07
113    4.76416429e-16
114    -4.97438261e-06
115    1.26657633e-05
116    9.81040063e-05
117    0.000489024287
118    0.0016803718
119    0.00395616182
120    0.00138645148
121    0.00534742219
122    -1.33343269e-06
123    3.14242252e-05
124    2.20588789e-16
125    0.000114283891
126    -2.18062039e-05
127    -0.000122809955
128    3.918871e-16
129    0.000232971722
130    -0.000194346769
131    -0.000115916864
132    -4.25727656e-15
133    -0.000169325577
134    0.000256424382
135    0.000261465657
136    1.00375158e-13
137    3.93361505e-05
138    0.000186954694
139    -7.18943422e-05
140    -3.29348641e-14
141    3.98007049e-05
142    -1.50664764e-16
143    -9.29000791e-06
144    -3.43502061e-16
145    -5.22477658e-05
146    -4.60860968e-09
147    -3.52933296e-08
148    -1.74109813e-07
149    -5.93936432e-07
150    -1.33615026e-06
151    -4.91476373e-07
152    -3.62386874e-06
153    -1.59738269e-06
154    1.0666573e-06
155    5.39218061e-16
156    2.01089758e-08
157    -1.40288834e-05
158    -2.48456413e-05
159    -2.8069916e-15
160    0.000105587692
161    3.38588003e-06
162    1.81049343e-06
163    7.13210654e-15
164    -0.000113828156
165    -6.07970237e-06
166    -1.63855868e-05
167    -1.92068821e-14
168    -1.00775939e-05
169    2.058701e-05
170    -4.71980255e-05
171    3.67371946e-15
172    7.29493646e-06
173    -7.4756564e-17
174    -2.62601266e-06
175    -2.7759737e-16
176    -5.33645655e-06
177    -9.05403111e-09
178    -2.67767738e-08
179    -4.35895258e-07
180    -3.11283511e-07
181    -1.13782431e-05
182    -4.11317638e-05
183    2.04312951e-05
184    4.46167078e-07
185    7.4758256e-06
186    2.38912879e-15
187    7.8208576e-05
188    1.05605581e-06
189    -3.5187728e-05
190    -3.9557717e-15
191    3.19548327e-05
192    -4.99163815e-05
193    1.94657791e-05
194    1.9974383e-14
195    6.90893276e-05
196    0.000158819016
197    -0.000542151573
198    -6.74838497e-14
199    0.000760094283
200    -0.000289039189
201    -0.000125562572
202    -6.74768928e-14
203    3.69900914e-06
204    -2.34487009e-16
205    -4.56935513e-06
206    -3.97929914e-16
207    9.43808306e-06
208    -2.58817217e-07
209    -1.79687142e-06
210    -1.01765741e-05
211    -2.98522781e-05
212    -0.000119121175
213    -0.000272149053
214    -4.62976134e-05
215    6.75715859e-05
216    -4.04410107e-05
217    2.9461371e-15
218    0.000674911455
219    0.000733069163
220    -0.000441648049
221    -6.74557012e-15
222    -9.3466574e-05
223    -1.68770567e-05
224    8.23681024e-05
225    2.25310888e-14
226    -0.00131606965
227    -0.000446690843
228    0.00036994113
229    -6.9349435e-14
230    -0.000572863227
231    -0.000320686641
232    6.05697032e-05
233    -2.70092272e-14
234    -0.000328584515
235    5.72819078e-17
236    -0.000130613437
237    1.68950134e-16
238    0.000182196782
239    -7.48487525e-07
240    -5.94872853e-06
241    -2.86999465e-05
242    -0.000103039862
243    -0.000204016099
244    -2.13859645e-06
245    -0.000461430703
246    -0.000150292838
247    -7.24397917e-05
248    3.15759361e-16
249    0.000171472363
250    -0.000238476466
251    -0.000100296934
252    -2.60956344e-15
253    -0.000804554573
254    0.000594101365
255    -0.00026860543
256    1.06578284e-14
257    0.00118984692
258    -2.35905469e-05
259    -0.00061871971
260    -9.85961164e-14
261    -0.000214087791
262    -0.000168917576
263    -0.000104703595
264    6.78742116e-14
265    0.000164400522
266    4.69376602e-16
267    5.0800896e-05
268    -6.60339017e-16
269    0.000146259205
270    2.56740926e-05
271    2.28933786e-05
272    -0.00036235888
273    -0.000282574028
274    -8.5646327e-05
275    -1.41744265e-05
276    -6.57281161e-16
[5D]