[Molden Format]
[Atoms] (Angs)
  C      1    6     -0.00714236     -1.70213747     -0.00000000
  H      2    1     -2.06882847     -1.44022412      0.00000000
  H      3    1     -0.12337987     -2.77567521      0.00000000
  H      4    1      0.04651892      1.98813947     -0.00000000
  C      5    6     -1.21953563      0.40211669      0.00000000
  O      6    8     -2.25921553      1.03043814      0.00000000
  C      7    6      1.28797806      0.34644937     -0.00000000
  O      8    8      2.31273661      1.00537216     -0.00000000
  N      9    7      0.03446295      0.97739857     -0.00000000
  N     10    7     -1.17287765     -0.98229824      0.00000000
  C     11    6      1.20107039     -1.10433419     -0.00000000
  H     12    1      2.11220096     -1.67699125     -0.00000000
[GTO]
1    0
S    1    1.000000
   4.56324000E+03    1.96665000E-03 
S    1    1.000000
   6.82024000E+02    1.52306000E-02 
S    1    1.000000
   1.54973000E+02    7.61269000E-02 
S    1    1.000000
   4.44553000E+01    2.60801000E-01 
S    1    1.000000
   1.30290000E+01    6.16462000E-01 
S    1    1.000000
   1.82773000E+00    2.21006000E-01 
SP   3    1.000000
   2.09642000E+01    1.14660000E-01   4.02487000E-02 
   4.80331000E+00    9.19999000E-01   2.37594000E-01 
   1.45933000E+00   -3.03068000E-03   8.15854000E-01 
SP   1    1.000000
   4.83456000E-01    1.00000000E+00   1.00000000E+00 
SP   1    1.000000
   1.45585000E-01    1.00000000E+00   1.00000000E+00 
SP   1    1.000000
   4.38000000E-02    1.00000000E+00   1.00000000E+00 
SP   1    1.000000
   1.31927711E-02    1.00000000E+00   1.00000000E+00 
D    1    1.000000
   6.26000000E-01    1.00000000E+00 

2    0
S    3    1.000000
   3.38650000E+01    2.54938000E-02 
   5.09479000E+00    1.90373000E-01 
   1.15879000E+00    8.52161000E-01 
S    1    1.000000
   3.25840000E-01    1.00000000E+00 
S    1    1.000000
   1.02741000E-01    1.00000000E+00 
S    1    1.000000
   3.60000000E-02    1.00000000E+00 
P    1    1.000000
   7.50000000E-01    1.00000000E+00 

3    0
S    3    1.000000
   3.38650000E+01    2.54938000E-02 
   5.09479000E+00    1.90373000E-01 
   1.15879000E+00    8.52161000E-01 
S    1    1.000000
   3.25840000E-01    1.00000000E+00 
S    1    1.000000
   1.02741000E-01    1.00000000E+00 
S    1    1.000000
   3.60000000E-02    1.00000000E+00 
P    1    1.000000
   7.50000000E-01    1.00000000E+00 

4    0
S    3    1.000000
   3.38650000E+01    2.54938000E-02 
   5.09479000E+00    1.90373000E-01 
   1.15879000E+00    8.52161000E-01 
S    1    1.000000
   3.25840000E-01    1.00000000E+00 
S    1    1.000000
   1.02741000E-01    1.00000000E+00 
S    1    1.000000
   3.60000000E-02    1.00000000E+00 
P    1    1.000000
   7.50000000E-01    1.00000000E+00 

5    0
S    1    1.000000
   4.56324000E+03    1.96665000E-03 
S    1    1.000000
   6.82024000E+02    1.52306000E-02 
S    1    1.000000
   1.54973000E+02    7.61269000E-02 
S    1    1.000000
   4.44553000E+01    2.60801000E-01 
S    1    1.000000
   1.30290000E+01    6.16462000E-01 
S    1    1.000000
   1.82773000E+00    2.21006000E-01 
SP   3    1.000000
   2.09642000E+01    1.14660000E-01   4.02487000E-02 
   4.80331000E+00    9.19999000E-01   2.37594000E-01 
   1.45933000E+00   -3.03068000E-03   8.15854000E-01 
SP   1    1.000000
   4.83456000E-01    1.00000000E+00   1.00000000E+00 
SP   1    1.000000
   1.45585000E-01    1.00000000E+00   1.00000000E+00 
SP   1    1.000000
   4.38000000E-02    1.00000000E+00   1.00000000E+00 
SP   1    1.000000
   1.31927711E-02    1.00000000E+00   1.00000000E+00 
D    1    1.000000
   6.26000000E-01    1.00000000E+00 

6    0
S    1    1.000000
   8.58850000E+03    1.89515000E-03 
S    1    1.000000
   1.29723000E+03    1.43859000E-02 
S    1    1.000000
   2.99296000E+02    7.07320000E-02 
S    1    1.000000
   8.73771000E+01    2.40001000E-01 
S    1    1.000000
   2.56789000E+01    5.94797000E-01 
S    1    1.000000
   3.74004000E+00    2.80802000E-01 
SP   3    1.000000
   4.21175000E+01    1.13889000E-01   3.65114000E-02 
   9.62837000E+00    9.20811000E-01   2.37153000E-01 
   2.85332000E+00   -3.27447000E-03   8.19702000E-01 
SP   1    1.000000
   9.05661000E-01    1.00000000E+00   1.00000000E+00 
SP   1    1.000000
   2.55611000E-01    1.00000000E+00   1.00000000E+00 
SP   1    1.000000
   8.45000000E-02    1.00000000E+00   1.00000000E+00 
SP   1    1.000000
   2.54518072E-02    1.00000000E+00   1.00000000E+00 
D    1    1.000000
   1.29200000E+00    1.00000000E+00 

7    0
S    1    1.000000
   4.56324000E+03    1.96665000E-03 
S    1    1.000000
   6.82024000E+02    1.52306000E-02 
S    1    1.000000
   1.54973000E+02    7.61269000E-02 
S    1    1.000000
   4.44553000E+01    2.60801000E-01 
S    1    1.000000
   1.30290000E+01    6.16462000E-01 
S    1    1.000000
   1.82773000E+00    2.21006000E-01 
SP   3    1.000000
   2.09642000E+01    1.14660000E-01   4.02487000E-02 
   4.80331000E+00    9.19999000E-01   2.37594000E-01 
   1.45933000E+00   -3.03068000E-03   8.15854000E-01 
SP   1    1.000000
   4.83456000E-01    1.00000000E+00   1.00000000E+00 
SP   1    1.000000
   1.45585000E-01    1.00000000E+00   1.00000000E+00 
SP   1    1.000000
   4.38000000E-02    1.00000000E+00   1.00000000E+00 
SP   1    1.000000
   1.31927711E-02    1.00000000E+00   1.00000000E+00 
D    1    1.000000
   6.26000000E-01    1.00000000E+00 

8    0
S    1    1.000000
   8.58850000E+03    1.89515000E-03 
S    1    1.000000
   1.29723000E+03    1.43859000E-02 
S    1    1.000000
   2.99296000E+02    7.07320000E-02 
S    1    1.000000
   8.73771000E+01    2.40001000E-01 
S    1    1.000000
   2.56789000E+01    5.94797000E-01 
S    1    1.000000
   3.74004000E+00    2.80802000E-01 
SP   3    1.000000
   4.21175000E+01    1.13889000E-01   3.65114000E-02 
   9.62837000E+00    9.20811000E-01   2.37153000E-01 
   2.85332000E+00   -3.27447000E-03   8.19702000E-01 
SP   1    1.000000
   9.05661000E-01    1.00000000E+00   1.00000000E+00 
SP   1    1.000000
   2.55611000E-01    1.00000000E+00   1.00000000E+00 
SP   1    1.000000
   8.45000000E-02    1.00000000E+00   1.00000000E+00 
SP   1    1.000000
   2.54518072E-02    1.00000000E+00   1.00000000E+00 
D    1    1.000000
   1.29200000E+00    1.00000000E+00 

9    0
S    1    1.000000
   6.29348000E+03    1.96979000E-03 
S    1    1.000000
   9.49044000E+02    1.49613000E-02 
S    1    1.000000
   2.18776000E+02    7.35006000E-02 
S    1    1.000000
   6.36916000E+01    2.48937000E-01 
S    1    1.000000
   1.88282000E+01    6.02460000E-01 
S    1    1.000000
   2.72023000E+00    2.56202000E-01 
SP   3    1.000000
   3.06331000E+01    1.11906000E-01   3.83119000E-02 
   7.02614000E+00    9.21666000E-01   2.37403000E-01 
   2.11205000E+00   -2.56919000E-03   8.17592000E-01 
SP   1    1.000000
   6.84009000E-01    1.00000000E+00   1.00000000E+00 
SP   1    1.000000
   2.00878000E-01    1.00000000E+00   1.00000000E+00 
SP   1    1.000000
   6.39000000E-02    1.00000000E+00   1.00000000E+00 
SP   1    1.000000
   1.92469880E-02    1.00000000E+00   1.00000000E+00 
D    1    1.000000
   9.13000000E-01    1.00000000E+00 

10    0
S    1    1.000000
   6.29348000E+03    1.96979000E-03 
S    1    1.000000
   9.49044000E+02    1.49613000E-02 
S    1    1.000000
   2.18776000E+02    7.35006000E-02 
S    1    1.000000
   6.36916000E+01    2.48937000E-01 
S    1    1.000000
   1.88282000E+01    6.02460000E-01 
S    1    1.000000
   2.72023000E+00    2.56202000E-01 
SP   3    1.000000
   3.06331000E+01    1.11906000E-01   3.83119000E-02 
   7.02614000E+00    9.21666000E-01   2.37403000E-01 
   2.11205000E+00   -2.56919000E-03   8.17592000E-01 
SP   1    1.000000
   6.84009000E-01    1.00000000E+00   1.00000000E+00 
SP   1    1.000000
   2.00878000E-01    1.00000000E+00   1.00000000E+00 
SP   1    1.000000
   6.39000000E-02    1.00000000E+00   1.00000000E+00 
SP   1    1.000000
   1.92469880E-02    1.00000000E+00   1.00000000E+00 
D    1    1.000000
   9.13000000E-01    1.00000000E+00 

11    0
S    1    1.000000
   4.56324000E+03    1.96665000E-03 
S    1    1.000000
   6.82024000E+02    1.52306000E-02 
S    1    1.000000
   1.54973000E+02    7.61269000E-02 
S    1    1.000000
   4.44553000E+01    2.60801000E-01 
S    1    1.000000
   1.30290000E+01    6.16462000E-01 
S    1    1.000000
   1.82773000E+00    2.21006000E-01 
SP   3    1.000000
   2.09642000E+01    1.14660000E-01   4.02487000E-02 
   4.80331000E+00    9.19999000E-01   2.37594000E-01 
   1.45933000E+00   -3.03068000E-03   8.15854000E-01 
SP   1    1.000000
   4.83456000E-01    1.00000000E+00   1.00000000E+00 
SP   1    1.000000
   1.45585000E-01    1.00000000E+00   1.00000000E+00 
SP   1    1.000000
   4.38000000E-02    1.00000000E+00   1.00000000E+00 
SP   1    1.000000
   1.31927711E-02    1.00000000E+00   1.00000000E+00 
D    1    1.000000
   6.26000000E-01    1.00000000E+00 

12    0
S    3    1.000000
   3.38650000E+01    2.54938000E-02 
   5.09479000E+00    1.90373000E-01 
   1.15879000E+00    8.52161000E-01 
S    1    1.000000
   3.25840000E-01    1.00000000E+00 
S    1    1.000000
   1.02741000E-01    1.00000000E+00 
S    1    1.000000
   3.60000000E-02    1.00000000E+00 
P    1    1.000000
   7.50000000E-01    1.00000000E+00 

[MO]
Sym=X
Ene=0.000149
Spin=Alpha
Occup=1
1    0.000324649867
2    0.00251331168
3    0.0125374309
4    0.0430446685
5    0.101684792
6    0.0370194187
7    0.136143146
8    -0.000271759901
9    0.000116897343
10    7.19252523e-16
11    0.000838708115
12    0.000675789943
13    0.000213800558
14    -1.39206154e-15
15    -0.000155135845
16    -0.000298615331
17    2.04309316e-05
18    9.78250387e-16
19    -0.00211706821
20    -0.000242365016
21    -0.000892357591
22    3.27502633e-14
23    -0.000105036146
24    8.09082835e-05
25    -0.000302442598
26    -9.16489281e-14
27    0.000308260849
28    3.47349962e-16
29    -7.90354814e-05
30    5.91264982e-17
31    0.000139974042
32    2.36483217e-05
33    1.28896296e-05
34    0.0002351184
35    0.000398766916
36    2.60217304e-05
37    5.94140691e-07
38    1.90603353e-16
39    0.000126453094
40    0.000241997256
41    -0.000165494935
42    -0.000232728642
43    5.37651675e-05
44    0.000140727131
45    1.70366612e-16
46    4.10950564e-05
47    4.94502974e-05
48    0.000180953821
49    5.73199373e-06
50    -6.03177188e-06
51    -3.93418853e-05
52    3.06266549e-18
53    0.000108574455
54    0.000840571815
55    0.00419295649
56    0.0143964815
57    0.0339997953
58    0.012311686
59    0.0455817311
60    4.51709431e-05
61    -3.68512023e-05
62    8.33495442e-16
63    0.000287696265
64    -1.9149339e-05
65    1.66899716e-05
66    3.44658077e-16
67    -0.0001250727
68    -0.000778791171
69    0.000413402341
70    2.00177082e-15
71    0.000670011851
72    -0.000372386971
73    -3.92193659e-05
74    4.87535665e-14
75    -0.000269830522
76    -0.000136558062
77    -1.15011059e-05
78    4.44406849e-14
79    -2.63641821e-05
80    2.05245539e-16
81    -1.61318756e-05
82    -1.38837493e-16
83    3.84006386e-05
84    -1.37237893e-08
85    -7.27826849e-08
86    -6.03929716e-07
87    -1.17844754e-06
88    -1.0931468e-05
89    -3.59756159e-05
90    4.07638489e-06
91    1.73477657e-05
92    -1.09315741e-05
93    4.62928462e-16
94    0.000119490929
95    8.28890013e-05
96    -4.2830349e-05
97    1.19097173e-15
98    -0.000308149069
99    -0.000160579821
100    0.000104283359
101    8.9113864e-16
102    -0.00118557781
103    -0.000277380199
104    0.000118819391
105    -1.36704096e-15
106    -0.000720775978
107    -2.84672902e-05
108    0.000248148689
109    -3.03880302e-14
110    -2.0242886e-05
111    2.26996686e-16
112    -9.46960661e-06
113    3.63270376e-16
114    1.55289564e-05
115    0.000902543489
116    0.00698706087
117    0.0348552222
118    0.119664967
119    0.282699731
120    0.102771449
121    0.37864374
122    -0.000601440214
123    0.000368370216
124    -1.15743519e-16
125    0.00162926531
126    0.000623358439
127    -0.000544818212
128    2.60381935e-15
129    0.0010113903
130    1.74115968e-06
131    0.000765791616
132    -4.7970214e-15
133    -0.00255389437
134    0.000545621531
135    0.00247609756
136    4.33456722e-14
137    -0.000293974488
138    -0.000232943234
139    4.02074676e-06
140    -3.1955981e-14
141    0.000311153821
142    -7.77343645e-18
143    -0.000244302613
144    -1.3655452e-16
145    -0.000225626934
146    -2.0882269e-07
147    -1.48514907e-06
148    -8.17799778e-06
149    -2.48845032e-05
150    -8.68862325e-05
151    -0.000162858437
152    -0.000100115818
153    -0.000162979414
154    -9.93113973e-05
155    8.63396836e-16
156    0.000560572246
157    -0.000481105436
158    -0.000330022113
159    -2.08162878e-15
160    -0.000293700248
161    0.000254995104
162    0.000100034621
163    3.31651646e-15
164    -0.000805558985
165    2.05339226e-05
166    -0.000123370328
167    -4.35974725e-15
168    -0.00270262393
169    0.000668292201
170    0.000100508341
171    -7.85026314e-15
172    0.000223749507
173    7.25211237e-17
174    -9.44026772e-05
175    -1.28662404e-16
176    7.90981582e-05
177    -1.25646664e-07
178    -7.6005508e-07
179    -5.23445547e-06
180    -1.23928183e-05
181    -8.16241263e-05
182    -0.000250366084
183    3.07257285e-05
184    1.75570398e-05
185    -2.64834429e-05
186    1.39269172e-15
187    0.000563684995
188    0.000546017968
189    -0.000324293496
190    -8.16840543e-16
191    0.000186254119
192    -0.000223749454
193    -0.000231960698
194    9.98044809e-15
195    -0.000707364851
196    -0.000855260116
197    -0.000296983428
198    -3.05899599e-14
199    0.000936031947
200    0.000723681806
201    -5.6342952e-05
202    -3.00474624e-14
203    -0.000211497149
204    -1.23125667e-17
205    -0.000113489942
206    1.59139048e-16
207    0.000206145739
208    -2.75913707e-07
209    -1.98101059e-06
210    -1.06125918e-05
211    -3.27524252e-05
212    -0.000110591942
213    -0.000176354178
214    -6.05847604e-05
215    1.56931841e-06
216    -1.0990439e-06
217    1.12495238e-15
218    0.000335711238
219    0.000281107128
220    -7.48861274e-05
221    -3.23933442e-15
222    0.000104931385
223    5.61845493e-05
224    0.000130165211
225    9.661932e-15
226    0.000148869384
227    0.000454965928
228    0.000279699002
229    -3.82602541e-14
230    0.000714910364
231    -0.000103539739
232    0.000443431743
233    1.8666488e-14
234    -0.000119611178
235    2.2257593e-16
236    -5.70161239e-05
237    7.14754547e-17
238    3.96684656e-05
239    0.000546506201
240    0.00423083223
241    0.0211050898
242    0.07246167
243    0.171185205
244    0.0625947782
245    0.229056385
246    -0.000133954647
247    0.000164939562
248    1.00198788e-15
249    0.0011928162
250    -3.66063617e-05
251    0.000296251221
252    -1.635728e-15
253    0.000529559303
254    -0.000187255289
255    3.50352239e-06
256    7.18634706e-15
257    0.00698712873
258    -0.000632973385
259    0.00142230786
260    -4.68775227e-14
261    0.000564959826
262    8.49780706e-05
263    0.000371508117
264    8.09767733e-14
265    0.00011216795
266    5.14477634e-16
267    -4.9730307e-05
268    -3.10392143e-16
269    -0.000145409801
270    0.000214291241
271    0.000307086524
272    -0.000111007912
273    0.000355361467
274    -0.000187033606
275    0.00013038311
276    -2.12983156e-16
[5D]