[Molden Format]
[Atoms] (Angs)
  C      1    6     -0.00714236     -1.70213747     -0.00000000
  H      2    1     -2.06882847     -1.44022412      0.00000000
  H      3    1     -0.12337987     -2.77567521      0.00000000
  H      4    1      0.04651892      1.98813947     -0.00000000
  C      5    6     -1.21953563      0.40211669      0.00000000
  O      6    8     -2.25921553      1.03043814      0.00000000
  C      7    6      1.28797806      0.34644937     -0.00000000
  O      8    8      2.31273661      1.00537216     -0.00000000
  N      9    7      0.03446295      0.97739857     -0.00000000
  N     10    7     -1.17287765     -0.98229824      0.00000000
  C     11    6      1.20107039     -1.10433419     -0.00000000
  H     12    1      2.11220096     -1.67699125     -0.00000000
[GTO]
1    0
S    1    1.000000
   4.56324000E+03    1.96665000E-03 
S    1    1.000000
   6.82024000E+02    1.52306000E-02 
S    1    1.000000
   1.54973000E+02    7.61269000E-02 
S    1    1.000000
   4.44553000E+01    2.60801000E-01 
S    1    1.000000
   1.30290000E+01    6.16462000E-01 
S    1    1.000000
   1.82773000E+00    2.21006000E-01 
SP   3    1.000000
   2.09642000E+01    1.14660000E-01   4.02487000E-02 
   4.80331000E+00    9.19999000E-01   2.37594000E-01 
   1.45933000E+00   -3.03068000E-03   8.15854000E-01 
SP   1    1.000000
   4.83456000E-01    1.00000000E+00   1.00000000E+00 
SP   1    1.000000
   1.45585000E-01    1.00000000E+00   1.00000000E+00 
SP   1    1.000000
   4.38000000E-02    1.00000000E+00   1.00000000E+00 
SP   1    1.000000
   1.31927711E-02    1.00000000E+00   1.00000000E+00 
D    1    1.000000
   6.26000000E-01    1.00000000E+00 

2    0
S    3    1.000000
   3.38650000E+01    2.54938000E-02 
   5.09479000E+00    1.90373000E-01 
   1.15879000E+00    8.52161000E-01 
S    1    1.000000
   3.25840000E-01    1.00000000E+00 
S    1    1.000000
   1.02741000E-01    1.00000000E+00 
S    1    1.000000
   3.60000000E-02    1.00000000E+00 
P    1    1.000000
   7.50000000E-01    1.00000000E+00 

3    0
S    3    1.000000
   3.38650000E+01    2.54938000E-02 
   5.09479000E+00    1.90373000E-01 
   1.15879000E+00    8.52161000E-01 
S    1    1.000000
   3.25840000E-01    1.00000000E+00 
S    1    1.000000
   1.02741000E-01    1.00000000E+00 
S    1    1.000000
   3.60000000E-02    1.00000000E+00 
P    1    1.000000
   7.50000000E-01    1.00000000E+00 

4    0
S    3    1.000000
   3.38650000E+01    2.54938000E-02 
   5.09479000E+00    1.90373000E-01 
   1.15879000E+00    8.52161000E-01 
S    1    1.000000
   3.25840000E-01    1.00000000E+00 
S    1    1.000000
   1.02741000E-01    1.00000000E+00 
S    1    1.000000
   3.60000000E-02    1.00000000E+00 
P    1    1.000000
   7.50000000E-01    1.00000000E+00 

5    0
S    1    1.000000
   4.56324000E+03    1.96665000E-03 
S    1    1.000000
   6.82024000E+02    1.52306000E-02 
S    1    1.000000
   1.54973000E+02    7.61269000E-02 
S    1    1.000000
   4.44553000E+01    2.60801000E-01 
S    1    1.000000
   1.30290000E+01    6.16462000E-01 
S    1    1.000000
   1.82773000E+00    2.21006000E-01 
SP   3    1.000000
   2.09642000E+01    1.14660000E-01   4.02487000E-02 
   4.80331000E+00    9.19999000E-01   2.37594000E-01 
   1.45933000E+00   -3.03068000E-03   8.15854000E-01 
SP   1    1.000000
   4.83456000E-01    1.00000000E+00   1.00000000E+00 
SP   1    1.000000
   1.45585000E-01    1.00000000E+00   1.00000000E+00 
SP   1    1.000000
   4.38000000E-02    1.00000000E+00   1.00000000E+00 
SP   1    1.000000
   1.31927711E-02    1.00000000E+00   1.00000000E+00 
D    1    1.000000
   6.26000000E-01    1.00000000E+00 

6    0
S    1    1.000000
   8.58850000E+03    1.89515000E-03 
S    1    1.000000
   1.29723000E+03    1.43859000E-02 
S    1    1.000000
   2.99296000E+02    7.07320000E-02 
S    1    1.000000
   8.73771000E+01    2.40001000E-01 
S    1    1.000000
   2.56789000E+01    5.94797000E-01 
S    1    1.000000
   3.74004000E+00    2.80802000E-01 
SP   3    1.000000
   4.21175000E+01    1.13889000E-01   3.65114000E-02 
   9.62837000E+00    9.20811000E-01   2.37153000E-01 
   2.85332000E+00   -3.27447000E-03   8.19702000E-01 
SP   1    1.000000
   9.05661000E-01    1.00000000E+00   1.00000000E+00 
SP   1    1.000000
   2.55611000E-01    1.00000000E+00   1.00000000E+00 
SP   1    1.000000
   8.45000000E-02    1.00000000E+00   1.00000000E+00 
SP   1    1.000000
   2.54518072E-02    1.00000000E+00   1.00000000E+00 
D    1    1.000000
   1.29200000E+00    1.00000000E+00 

7    0
S    1    1.000000
   4.56324000E+03    1.96665000E-03 
S    1    1.000000
   6.82024000E+02    1.52306000E-02 
S    1    1.000000
   1.54973000E+02    7.61269000E-02 
S    1    1.000000
   4.44553000E+01    2.60801000E-01 
S    1    1.000000
   1.30290000E+01    6.16462000E-01 
S    1    1.000000
   1.82773000E+00    2.21006000E-01 
SP   3    1.000000
   2.09642000E+01    1.14660000E-01   4.02487000E-02 
   4.80331000E+00    9.19999000E-01   2.37594000E-01 
   1.45933000E+00   -3.03068000E-03   8.15854000E-01 
SP   1    1.000000
   4.83456000E-01    1.00000000E+00   1.00000000E+00 
SP   1    1.000000
   1.45585000E-01    1.00000000E+00   1.00000000E+00 
SP   1    1.000000
   4.38000000E-02    1.00000000E+00   1.00000000E+00 
SP   1    1.000000
   1.31927711E-02    1.00000000E+00   1.00000000E+00 
D    1    1.000000
   6.26000000E-01    1.00000000E+00 

8    0
S    1    1.000000
   8.58850000E+03    1.89515000E-03 
S    1    1.000000
   1.29723000E+03    1.43859000E-02 
S    1    1.000000
   2.99296000E+02    7.07320000E-02 
S    1    1.000000
   8.73771000E+01    2.40001000E-01 
S    1    1.000000
   2.56789000E+01    5.94797000E-01 
S    1    1.000000
   3.74004000E+00    2.80802000E-01 
SP   3    1.000000
   4.21175000E+01    1.13889000E-01   3.65114000E-02 
   9.62837000E+00    9.20811000E-01   2.37153000E-01 
   2.85332000E+00   -3.27447000E-03   8.19702000E-01 
SP   1    1.000000
   9.05661000E-01    1.00000000E+00   1.00000000E+00 
SP   1    1.000000
   2.55611000E-01    1.00000000E+00   1.00000000E+00 
SP   1    1.000000
   8.45000000E-02    1.00000000E+00   1.00000000E+00 
SP   1    1.000000
   2.54518072E-02    1.00000000E+00   1.00000000E+00 
D    1    1.000000
   1.29200000E+00    1.00000000E+00 

9    0
S    1    1.000000
   6.29348000E+03    1.96979000E-03 
S    1    1.000000
   9.49044000E+02    1.49613000E-02 
S    1    1.000000
   2.18776000E+02    7.35006000E-02 
S    1    1.000000
   6.36916000E+01    2.48937000E-01 
S    1    1.000000
   1.88282000E+01    6.02460000E-01 
S    1    1.000000
   2.72023000E+00    2.56202000E-01 
SP   3    1.000000
   3.06331000E+01    1.11906000E-01   3.83119000E-02 
   7.02614000E+00    9.21666000E-01   2.37403000E-01 
   2.11205000E+00   -2.56919000E-03   8.17592000E-01 
SP   1    1.000000
   6.84009000E-01    1.00000000E+00   1.00000000E+00 
SP   1    1.000000
   2.00878000E-01    1.00000000E+00   1.00000000E+00 
SP   1    1.000000
   6.39000000E-02    1.00000000E+00   1.00000000E+00 
SP   1    1.000000
   1.92469880E-02    1.00000000E+00   1.00000000E+00 
D    1    1.000000
   9.13000000E-01    1.00000000E+00 

10    0
S    1    1.000000
   6.29348000E+03    1.96979000E-03 
S    1    1.000000
   9.49044000E+02    1.49613000E-02 
S    1    1.000000
   2.18776000E+02    7.35006000E-02 
S    1    1.000000
   6.36916000E+01    2.48937000E-01 
S    1    1.000000
   1.88282000E+01    6.02460000E-01 
S    1    1.000000
   2.72023000E+00    2.56202000E-01 
SP   3    1.000000
   3.06331000E+01    1.11906000E-01   3.83119000E-02 
   7.02614000E+00    9.21666000E-01   2.37403000E-01 
   2.11205000E+00   -2.56919000E-03   8.17592000E-01 
SP   1    1.000000
   6.84009000E-01    1.00000000E+00   1.00000000E+00 
SP   1    1.000000
   2.00878000E-01    1.00000000E+00   1.00000000E+00 
SP   1    1.000000
   6.39000000E-02    1.00000000E+00   1.00000000E+00 
SP   1    1.000000
   1.92469880E-02    1.00000000E+00   1.00000000E+00 
D    1    1.000000
   9.13000000E-01    1.00000000E+00 

11    0
S    1    1.000000
   4.56324000E+03    1.96665000E-03 
S    1    1.000000
   6.82024000E+02    1.52306000E-02 
S    1    1.000000
   1.54973000E+02    7.61269000E-02 
S    1    1.000000
   4.44553000E+01    2.60801000E-01 
S    1    1.000000
   1.30290000E+01    6.16462000E-01 
S    1    1.000000
   1.82773000E+00    2.21006000E-01 
SP   3    1.000000
   2.09642000E+01    1.14660000E-01   4.02487000E-02 
   4.80331000E+00    9.19999000E-01   2.37594000E-01 
   1.45933000E+00   -3.03068000E-03   8.15854000E-01 
SP   1    1.000000
   4.83456000E-01    1.00000000E+00   1.00000000E+00 
SP   1    1.000000
   1.45585000E-01    1.00000000E+00   1.00000000E+00 
SP   1    1.000000
   4.38000000E-02    1.00000000E+00   1.00000000E+00 
SP   1    1.000000
   1.31927711E-02    1.00000000E+00   1.00000000E+00 
D    1    1.000000
   6.26000000E-01    1.00000000E+00 

12    0
S    3    1.000000
   3.38650000E+01    2.54938000E-02 
   5.09479000E+00    1.90373000E-01 
   1.15879000E+00    8.52161000E-01 
S    1    1.000000
   3.25840000E-01    1.00000000E+00 
S    1    1.000000
   1.02741000E-01    1.00000000E+00 
S    1    1.000000
   3.60000000E-02    1.00000000E+00 
P    1    1.000000
   7.50000000E-01    1.00000000E+00 

[MO]
Sym=X
Ene=0.390782
Spin=Alpha
Occup=1
1    -0.00110892574
2    -0.00858489217
3    -0.0428250358
4    -0.147032052
5    -0.347334186
6    -0.126656226
7    -0.465123537
8    0.00111386844
9    -0.000315366959
10    9.05304553e-16
11    -0.00166804526
12    -0.00105909735
13    6.73767563e-05
14    -2.3973212e-15
15    -0.00148051443
16    0.000299947191
17    -0.000855454736
18    8.71179079e-15
19    -0.000945674
20    0.000703672379
21    -0.000580105011
22    -8.78033945e-14
23    0.000153153052
24    -7.3214628e-05
25    2.50478702e-05
26    6.20809325e-14
27    -0.000362689723
28    3.45027151e-16
29    0.000237529831
30    -6.59652086e-17
31    -8.90456535e-05
32    -2.8709652e-05
33    -5.22813621e-05
34    -3.14153043e-05
35    0.000110323909
36    -4.65898803e-05
37    -1.55669133e-05
38    2.3022961e-16
39    -0.000380033257
40    -0.000461240243
41    -0.000241089204
42    -0.000137167782
43    -4.12611219e-05
44    -0.000307295727
45    1.45066448e-16
46    -1.14987315e-05
47    5.8507313e-05
48    -0.0002381218
49    -0.000258679046
50    -5.91951252e-06
51    -5.81520109e-06
52    -7.01945422e-16
53    1.11603659e-07
54    8.33235029e-07
55    4.3744202e-06
56    1.41949599e-05
57    4.2477694e-05
58    5.84888089e-05
59    2.23793794e-05
60    4.71377026e-06
61    -2.13983856e-05
62    -2.28276497e-15
63    -0.000107189947
64    -1.77049522e-05
65    8.44362229e-05
66    -2.12104557e-16
67    -0.000232314335
68    0.000620381074
69    -0.00039312438
70    -4.86204339e-15
71    -0.000659608439
72    0.000315465554
73    -0.000583911688
74    -9.97694216e-14
75    -0.000517815257
76    -0.000180404611
77    -9.31220146e-06
78    -7.99594053e-14
79    1.82864358e-05
80    -4.92462508e-16
81    -3.95360325e-06
82    7.11730058e-16
83    4.57636597e-05
84    2.05970441e-09
85    -9.89513683e-09
86    1.36469716e-07
87    -2.27153358e-07
88    6.15370749e-06
89    2.53592457e-05
90    -1.42874317e-05
91    4.16627698e-06
92    -1.9186094e-06
93    -1.53629992e-15
94    -6.87710996e-05
95    -2.58308164e-05
96    2.58734822e-05
97    -1.47514435e-15
98    0.000299660791
99    0.000154803025
100    -8.53249338e-05
101    -6.93730702e-15
102    0.00100443353
103    0.000154660854
104    -0.000135689515
105    7.83723558e-15
106    0.00134883082
107    0.000276987766
108    -4.12416238e-05
109    2.61876068e-14
110    2.43269539e-06
111    7.93903515e-16
112    -6.85650895e-07
113    -4.73615209e-16
114    5.5791818e-06
115    2.93961704e-05
116    0.000227518283
117    0.00113536469
118    0.00389645369
119    0.00921905548
120    0.00340587376
121    0.012298426
122    -2.67123015e-05
123    -1.34002738e-05
124    -1.67317454e-16
125    -4.80872455e-05
126    5.18774927e-05
127    0.000108611226
128    -2.24510062e-16
129    -0.000179578949
130    0.000188624485
131    0.000139180802
132    4.30164326e-15
133    7.61687163e-05
134    -0.000245739808
135    -0.000164167104
136    -1.00848859e-13
137    -4.97045664e-05
138    -0.000199148538
139    7.31978407e-05
140    3.25440547e-14
141    -2.66580382e-05
142    1.56875497e-16
143    -9.1727376e-07
144    3.47407241e-16
145    4.77047363e-05
146    -1.02723367e-08
147    -7.36398528e-08
148    -3.97860939e-07
149    -1.22998706e-06
150    -4.20976861e-06
151    -7.31989557e-06
152    -3.73400924e-06
153    -6.11606647e-06
154    -6.08076535e-06
155    -4.77989896e-16
156    2.50144572e-05
157    -7.57821601e-06
158    1.03950565e-05
159    2.83141913e-15
160    -0.000117572435
161    6.49359115e-06
162    2.74544195e-06
163    -7.03543692e-15
164    9.12738151e-05
165    5.02742188e-06
166    9.95746352e-06
167    1.95120323e-14
168    -8.83775893e-05
169    4.8353164e-06
170    5.0810873e-05
171    -4.02472196e-15
172    2.64877044e-06
173    6.96803127e-17
174    -1.73054965e-06
175    2.6585839e-16
176    9.4803922e-06
177    -1.1733992e-08
178    -1.23726526e-07
179    -3.61869675e-07
180    -2.18422641e-06
181    3.29288891e-06
182    2.89035368e-05
183    -2.61709925e-05
184    8.34928012e-07
185    -8.9685749e-06
186    -2.37616872e-15
187    -5.44531939e-05
188    2.39675899e-05
189    2.14649258e-05
190    4.0760996e-15
191    -2.79631864e-05
192    4.28437037e-05
193    -2.71928435e-05
194    -2.00199836e-14
195    -0.00011262678
196    -0.00019772041
197    0.00053980238
198    6.7926627e-14
199    -0.000737634269
200    0.000317925273
201    0.000127557718
202    6.76337987e-14
203    -1.34190045e-05
204    2.33100125e-16
205    -4.75664713e-07
206    4.22215437e-16
207    -4.52447251e-07
208    2.82296853e-07
209    1.97799189e-06
210    1.10467925e-05
211    3.28707624e-05
212    0.000125818659
213    0.000272822988
214    5.75762484e-05
215    -6.80003321e-05
216    4.06920297e-05
217    -2.98232784e-15
218    -0.000669741275
219    -0.000731141294
220    0.000443760743
221    6.71985733e-15
222    9.5141481e-05
223    1.7289025e-05
224    -8.00313254e-05
225    -2.26230642e-14
226    0.00132637649
227    0.000467475018
228    -0.000365521191
229    6.92961924e-14
230    0.000605308047
231    0.000319652161
232    -4.44719941e-05
233    2.84796612e-14
234    0.00032782954
235    -4.80734151e-17
236    0.000130010731
237    -1.64738455e-16
238    -0.000182965757
239    9.48375152e-06
240    7.35733196e-05
241    0.000366039288
242    0.00126123785
243    0.0029401482
244    0.00100131683
245    0.00412215233
246    0.000148792006
247    7.76083344e-05
248    -2.65579492e-16
249    -0.000145766929
250    0.000240670457
251    0.000117715944
252    2.65875046e-15
253    0.000811682359
254    -0.000598586448
255    0.000263092235
256    -1.05506216e-14
257    -0.000942041106
258    8.50251192e-06
259    0.000678888793
260    9.89846702e-14
261    0.000239464294
262    0.000173606994
263    0.000120166527
264    -6.61435533e-14
265    -0.000162407905
266    -4.43030483e-16
267    -5.23621688e-05
268    6.58545999e-16
269    -0.000156294726
270    -2.17467772e-05
271    -1.57492884e-05
272    0.000357683835
273    0.000295961232
274    8.21095856e-05
275    1.81238901e-05
276    6.70690585e-16
[5D]