[Molden Format]
[Atoms] (Angs)
  C      1    6     -0.00714236     -1.70213747     -0.00000000
  H      2    1     -2.06882847     -1.44022412      0.00000000
  H      3    1     -0.12337987     -2.77567521      0.00000000
  H      4    1      0.04651892      1.98813947     -0.00000000
  C      5    6     -1.21953563      0.40211669      0.00000000
  O      6    8     -2.25921553      1.03043814      0.00000000
  C      7    6      1.28797806      0.34644937     -0.00000000
  O      8    8      2.31273661      1.00537216     -0.00000000
  N      9    7      0.03446295      0.97739857     -0.00000000
  N     10    7     -1.17287765     -0.98229824      0.00000000
  C     11    6      1.20107039     -1.10433419     -0.00000000
  H     12    1      2.11220096     -1.67699125     -0.00000000
[GTO]
1    0
S    1    1.000000
   4.56324000E+03    1.96665000E-03 
S    1    1.000000
   6.82024000E+02    1.52306000E-02 
S    1    1.000000
   1.54973000E+02    7.61269000E-02 
S    1    1.000000
   4.44553000E+01    2.60801000E-01 
S    1    1.000000
   1.30290000E+01    6.16462000E-01 
S    1    1.000000
   1.82773000E+00    2.21006000E-01 
SP   3    1.000000
   2.09642000E+01    1.14660000E-01   4.02487000E-02 
   4.80331000E+00    9.19999000E-01   2.37594000E-01 
   1.45933000E+00   -3.03068000E-03   8.15854000E-01 
SP   1    1.000000
   4.83456000E-01    1.00000000E+00   1.00000000E+00 
SP   1    1.000000
   1.45585000E-01    1.00000000E+00   1.00000000E+00 
SP   1    1.000000
   4.38000000E-02    1.00000000E+00   1.00000000E+00 
SP   1    1.000000
   1.31927711E-02    1.00000000E+00   1.00000000E+00 
D    1    1.000000
   6.26000000E-01    1.00000000E+00 

2    0
S    3    1.000000
   3.38650000E+01    2.54938000E-02 
   5.09479000E+00    1.90373000E-01 
   1.15879000E+00    8.52161000E-01 
S    1    1.000000
   3.25840000E-01    1.00000000E+00 
S    1    1.000000
   1.02741000E-01    1.00000000E+00 
S    1    1.000000
   3.60000000E-02    1.00000000E+00 
P    1    1.000000
   7.50000000E-01    1.00000000E+00 

3    0
S    3    1.000000
   3.38650000E+01    2.54938000E-02 
   5.09479000E+00    1.90373000E-01 
   1.15879000E+00    8.52161000E-01 
S    1    1.000000
   3.25840000E-01    1.00000000E+00 
S    1    1.000000
   1.02741000E-01    1.00000000E+00 
S    1    1.000000
   3.60000000E-02    1.00000000E+00 
P    1    1.000000
   7.50000000E-01    1.00000000E+00 

4    0
S    3    1.000000
   3.38650000E+01    2.54938000E-02 
   5.09479000E+00    1.90373000E-01 
   1.15879000E+00    8.52161000E-01 
S    1    1.000000
   3.25840000E-01    1.00000000E+00 
S    1    1.000000
   1.02741000E-01    1.00000000E+00 
S    1    1.000000
   3.60000000E-02    1.00000000E+00 
P    1    1.000000
   7.50000000E-01    1.00000000E+00 

5    0
S    1    1.000000
   4.56324000E+03    1.96665000E-03 
S    1    1.000000
   6.82024000E+02    1.52306000E-02 
S    1    1.000000
   1.54973000E+02    7.61269000E-02 
S    1    1.000000
   4.44553000E+01    2.60801000E-01 
S    1    1.000000
   1.30290000E+01    6.16462000E-01 
S    1    1.000000
   1.82773000E+00    2.21006000E-01 
SP   3    1.000000
   2.09642000E+01    1.14660000E-01   4.02487000E-02 
   4.80331000E+00    9.19999000E-01   2.37594000E-01 
   1.45933000E+00   -3.03068000E-03   8.15854000E-01 
SP   1    1.000000
   4.83456000E-01    1.00000000E+00   1.00000000E+00 
SP   1    1.000000
   1.45585000E-01    1.00000000E+00   1.00000000E+00 
SP   1    1.000000
   4.38000000E-02    1.00000000E+00   1.00000000E+00 
SP   1    1.000000
   1.31927711E-02    1.00000000E+00   1.00000000E+00 
D    1    1.000000
   6.26000000E-01    1.00000000E+00 

6    0
S    1    1.000000
   8.58850000E+03    1.89515000E-03 
S    1    1.000000
   1.29723000E+03    1.43859000E-02 
S    1    1.000000
   2.99296000E+02    7.07320000E-02 
S    1    1.000000
   8.73771000E+01    2.40001000E-01 
S    1    1.000000
   2.56789000E+01    5.94797000E-01 
S    1    1.000000
   3.74004000E+00    2.80802000E-01 
SP   3    1.000000
   4.21175000E+01    1.13889000E-01   3.65114000E-02 
   9.62837000E+00    9.20811000E-01   2.37153000E-01 
   2.85332000E+00   -3.27447000E-03   8.19702000E-01 
SP   1    1.000000
   9.05661000E-01    1.00000000E+00   1.00000000E+00 
SP   1    1.000000
   2.55611000E-01    1.00000000E+00   1.00000000E+00 
SP   1    1.000000
   8.45000000E-02    1.00000000E+00   1.00000000E+00 
SP   1    1.000000
   2.54518072E-02    1.00000000E+00   1.00000000E+00 
D    1    1.000000
   1.29200000E+00    1.00000000E+00 

7    0
S    1    1.000000
   4.56324000E+03    1.96665000E-03 
S    1    1.000000
   6.82024000E+02    1.52306000E-02 
S    1    1.000000
   1.54973000E+02    7.61269000E-02 
S    1    1.000000
   4.44553000E+01    2.60801000E-01 
S    1    1.000000
   1.30290000E+01    6.16462000E-01 
S    1    1.000000
   1.82773000E+00    2.21006000E-01 
SP   3    1.000000
   2.09642000E+01    1.14660000E-01   4.02487000E-02 
   4.80331000E+00    9.19999000E-01   2.37594000E-01 
   1.45933000E+00   -3.03068000E-03   8.15854000E-01 
SP   1    1.000000
   4.83456000E-01    1.00000000E+00   1.00000000E+00 
SP   1    1.000000
   1.45585000E-01    1.00000000E+00   1.00000000E+00 
SP   1    1.000000
   4.38000000E-02    1.00000000E+00   1.00000000E+00 
SP   1    1.000000
   1.31927711E-02    1.00000000E+00   1.00000000E+00 
D    1    1.000000
   6.26000000E-01    1.00000000E+00 

8    0
S    1    1.000000
   8.58850000E+03    1.89515000E-03 
S    1    1.000000
   1.29723000E+03    1.43859000E-02 
S    1    1.000000
   2.99296000E+02    7.07320000E-02 
S    1    1.000000
   8.73771000E+01    2.40001000E-01 
S    1    1.000000
   2.56789000E+01    5.94797000E-01 
S    1    1.000000
   3.74004000E+00    2.80802000E-01 
SP   3    1.000000
   4.21175000E+01    1.13889000E-01   3.65114000E-02 
   9.62837000E+00    9.20811000E-01   2.37153000E-01 
   2.85332000E+00   -3.27447000E-03   8.19702000E-01 
SP   1    1.000000
   9.05661000E-01    1.00000000E+00   1.00000000E+00 
SP   1    1.000000
   2.55611000E-01    1.00000000E+00   1.00000000E+00 
SP   1    1.000000
   8.45000000E-02    1.00000000E+00   1.00000000E+00 
SP   1    1.000000
   2.54518072E-02    1.00000000E+00   1.00000000E+00 
D    1    1.000000
   1.29200000E+00    1.00000000E+00 

9    0
S    1    1.000000
   6.29348000E+03    1.96979000E-03 
S    1    1.000000
   9.49044000E+02    1.49613000E-02 
S    1    1.000000
   2.18776000E+02    7.35006000E-02 
S    1    1.000000
   6.36916000E+01    2.48937000E-01 
S    1    1.000000
   1.88282000E+01    6.02460000E-01 
S    1    1.000000
   2.72023000E+00    2.56202000E-01 
SP   3    1.000000
   3.06331000E+01    1.11906000E-01   3.83119000E-02 
   7.02614000E+00    9.21666000E-01   2.37403000E-01 
   2.11205000E+00   -2.56919000E-03   8.17592000E-01 
SP   1    1.000000
   6.84009000E-01    1.00000000E+00   1.00000000E+00 
SP   1    1.000000
   2.00878000E-01    1.00000000E+00   1.00000000E+00 
SP   1    1.000000
   6.39000000E-02    1.00000000E+00   1.00000000E+00 
SP   1    1.000000
   1.92469880E-02    1.00000000E+00   1.00000000E+00 
D    1    1.000000
   9.13000000E-01    1.00000000E+00 

10    0
S    1    1.000000
   6.29348000E+03    1.96979000E-03 
S    1    1.000000
   9.49044000E+02    1.49613000E-02 
S    1    1.000000
   2.18776000E+02    7.35006000E-02 
S    1    1.000000
   6.36916000E+01    2.48937000E-01 
S    1    1.000000
   1.88282000E+01    6.02460000E-01 
S    1    1.000000
   2.72023000E+00    2.56202000E-01 
SP   3    1.000000
   3.06331000E+01    1.11906000E-01   3.83119000E-02 
   7.02614000E+00    9.21666000E-01   2.37403000E-01 
   2.11205000E+00   -2.56919000E-03   8.17592000E-01 
SP   1    1.000000
   6.84009000E-01    1.00000000E+00   1.00000000E+00 
SP   1    1.000000
   2.00878000E-01    1.00000000E+00   1.00000000E+00 
SP   1    1.000000
   6.39000000E-02    1.00000000E+00   1.00000000E+00 
SP   1    1.000000
   1.92469880E-02    1.00000000E+00   1.00000000E+00 
D    1    1.000000
   9.13000000E-01    1.00000000E+00 

11    0
S    1    1.000000
   4.56324000E+03    1.96665000E-03 
S    1    1.000000
   6.82024000E+02    1.52306000E-02 
S    1    1.000000
   1.54973000E+02    7.61269000E-02 
S    1    1.000000
   4.44553000E+01    2.60801000E-01 
S    1    1.000000
   1.30290000E+01    6.16462000E-01 
S    1    1.000000
   1.82773000E+00    2.21006000E-01 
SP   3    1.000000
   2.09642000E+01    1.14660000E-01   4.02487000E-02 
   4.80331000E+00    9.19999000E-01   2.37594000E-01 
   1.45933000E+00   -3.03068000E-03   8.15854000E-01 
SP   1    1.000000
   4.83456000E-01    1.00000000E+00   1.00000000E+00 
SP   1    1.000000
   1.45585000E-01    1.00000000E+00   1.00000000E+00 
SP   1    1.000000
   4.38000000E-02    1.00000000E+00   1.00000000E+00 
SP   1    1.000000
   1.31927711E-02    1.00000000E+00   1.00000000E+00 
D    1    1.000000
   6.26000000E-01    1.00000000E+00 

12    0
S    3    1.000000
   3.38650000E+01    2.54938000E-02 
   5.09479000E+00    1.90373000E-01 
   1.15879000E+00    8.52161000E-01 
S    1    1.000000
   3.25840000E-01    1.00000000E+00 
S    1    1.000000
   1.02741000E-01    1.00000000E+00 
S    1    1.000000
   3.60000000E-02    1.00000000E+00 
P    1    1.000000
   7.50000000E-01    1.00000000E+00 

[MO]
Sym=X
Ene=0.218244
Spin=Alpha
Occup=1
1    -4.32505437e-06
2    -3.34725294e-05
3    -0.000167045507
4    -0.000573266885
5    -0.00135782187
6    -0.000516015532
7    -0.00180236696
8    1.95425186e-05
9    -9.1349441e-06
10    4.6604604e-16
11    4.49325386e-05
12    -8.29146962e-05
13    2.5268913e-05
14    2.36465832e-15
15    -0.000328476171
16    8.91200529e-05
17    -0.000145843289
18    -7.93489536e-17
19    0.00323057614
20    0.000495879175
21    0.00127675834
22    1.33318532e-14
23    0.000312008086
24    -0.000212595742
25    7.90400595e-05
26    4.96684024e-14
27    -5.73349617e-05
28    5.32796879e-16
29    1.70959531e-05
30    1.77196482e-17
31    -8.66356785e-07
32    3.26772695e-05
33    1.19801104e-05
34    2.64532613e-05
35    0.000107483649
36    3.81142464e-05
37    2.1795067e-05
38    5.55666462e-16
39    1.00354681e-05
40    3.33870768e-06
41    -2.34528326e-05
42    0.000866489922
43    -8.46040533e-06
44    9.34244764e-06
45    -1.98771898e-16
46    3.06914676e-05
47    4.72966749e-05
48    -0.000106331036
49    -4.99091943e-05
50    -6.16753248e-06
51    -4.78629265e-05
52    7.05579597e-16
53    0.0011095596
54    0.00858962679
55    0.0428502563
56    0.147113253
57    0.347562377
58    0.126417253
59    0.465478245
60    0.000643612097
61    -0.000449548188
62    1.91755135e-15
63    0.00162734702
64    -0.000736243123
65    0.00048300714
66    -3.68104379e-16
67    0.00142831703
68    0.000376779806
69    -0.00020768699
70    9.18600318e-15
71    -0.000415840408
72    -0.000715909092
73    0.000470660392
74    -2.04152615e-14
75    -0.000736072758
76    -2.0416422e-05
77    0.000106755909
78    -3.5265597e-14
79    -0.000277770642
80    -3.96508534e-16
81    -0.000242005809
82    3.32148961e-16
83    0.000158481391
84    -3.60150993e-07
85    -2.64458167e-06
86    -1.38407862e-05
87    -4.43169866e-05
88    -0.00013182283
89    -0.00017788238
90    -0.000192278964
91    0.000211818773
92    -0.000128263987
93    4.18085961e-16
94    0.000595086639
95    0.000535107379
96    -0.000320646416
97    1.0552464e-15
98    -0.00025586413
99    -0.00023939823
100    0.000137547102
101    -7.68424183e-16
102    0.000151405722
103    0.000284886253
104    -0.000153165487
105    6.47554673e-16
106    -0.000890137793
107    -0.000143575871
108    0.000109929923
109    2.03597916e-14
110    -0.000239534388
111    1.01738037e-16
112    -0.000116369745
113    5.22453681e-16
114    0.000126505944
115    1.55577705e-06
116    1.20620595e-05
117    6.00462575e-05
118    0.000206632896
119    0.000482941698
120    0.000151521839
121    0.000667559485
122    1.66591451e-05
123    -1.99486891e-06
124    2.1869459e-15
125    4.64993657e-05
126    -5.07496875e-05
127    9.7980445e-06
128    5.15737563e-15
129    5.99761381e-05
130    0.000388778232
131    0.000130947748
132    1.39548605e-15
133    0.00333646242
134    -0.000434642009
135    -0.000847715649
136    4.48394227e-14
137    0.000587976457
138    -0.000132058508
139    -0.000124785115
140    1.26921433e-14
141    -9.37266978e-06
142    2.25301545e-16
143    4.2017963e-06
144    2.45194408e-16
145    3.90491454e-05
146    -2.98034685e-09
147    -8.94401923e-09
148    -1.43803723e-07
149    -1.15939211e-07
150    -3.85855668e-06
151    -1.3633073e-05
152    6.44660669e-06
153    1.13047394e-06
154    6.18641529e-07
155    1.84347493e-15
156    3.57767025e-05
157    -2.26661616e-05
158    -2.13558304e-06
159    2.11909611e-15
160    -0.00013600372
161    6.36335558e-05
162    5.38267853e-05
163    6.64268338e-15
164    -0.00064274528
165    0.000218732033
166    0.000110606186
167    -5.65134719e-15
168    -7.46503576e-05
169    3.21642064e-05
170    0.000113030618
171    -1.44027632e-14
172    -2.48796559e-06
173    -3.9144046e-16
174    3.69329621e-07
175    -5.38986711e-16
176    5.65331984e-06
177    -2.85975507e-07
178    -2.04322132e-06
179    -1.10892515e-05
180    -3.4010183e-05
181    -0.000118417414
182    -0.00022311628
183    -8.00915161e-05
184    -7.34678204e-05
185    -4.40740806e-05
186    1.94618347e-15
187    0.000548570746
188    -0.000625331665
189    -0.000293174436
190    9.47341011e-16
191    -7.7123506e-05
192    0.000191688938
193    -1.62869443e-05
194    7.81012296e-15
195    -0.000379846261
196    0.000479476254
197    0.000264839989
198    -1.49732245e-14
199    9.99299611e-06
200    -9.87975599e-05
201    2.73978826e-05
202    6.66413385e-15
203    0.000228508498
204    -7.37740374e-18
205    -9.8794167e-05
206    1.9044513e-16
207    0.000207691627
208    -2.26563543e-07
209    -1.58624007e-06
210    -8.88123964e-06
211    -2.63828425e-05
212    -0.000101073457
213    -0.000217473899
214    -5.14797937e-05
215    6.9013192e-06
216    8.13517581e-05
217    3.79749539e-16
218    0.000546129318
219    -3.6932021e-05
220    0.000705729042
221    2.52541106e-15
222    -7.06044941e-05
223    6.0430838e-05
224    -0.000169815399
225    -2.89258037e-15
226    -0.000434825593
227    0.000100617807
228    -0.00023573381
229    6.2879088e-15
230    9.18110293e-05
231    -0.00014028952
232    0.000303025333
233    -3.57231145e-14
234    -2.59023637e-05
235    7.98213386e-18
236    -0.00010069169
237    3.28211526e-16
238    -0.000317594807
239    -7.14322667e-07
240    -5.50269829e-06
241    -2.76464751e-05
242    -9.41609838e-05
243    -0.000229781832
244    -0.000114691981
245    -0.000281345227
246    9.17072783e-06
247    -2.61729475e-06
248    1.87590787e-15
249    7.29644455e-05
250    -6.71855668e-05
251    1.97099533e-05
252    2.18154824e-15
253    0.00012805248
254    -0.000117860625
255    5.77043653e-05
256    7.16500784e-15
257    -0.00537503105
258    0.000899848418
259    -0.000558894187
260    -2.93092172e-14
261    -7.65563835e-05
262    7.8490642e-05
263    -3.77544654e-05
264    -4.3091382e-14
265    2.38144998e-05
266    5.70469019e-16
267    1.54105487e-06
268    -6.03077379e-17
269    1.35641423e-06
270    4.65582672e-06
271    5.21333542e-05
272    1.1140122e-05
273    -0.000105304737
274    -1.33764492e-05
275    7.3621963e-06
276    7.74022253e-16
[5D]