[Molden Format]
[Atoms] (Angs)
  C      1    6     -0.00714236     -1.70213747     -0.00000000
  H      2    1     -2.06882847     -1.44022412      0.00000000
  H      3    1     -0.12337987     -2.77567521      0.00000000
  H      4    1      0.04651892      1.98813947     -0.00000000
  C      5    6     -1.21953563      0.40211669      0.00000000
  O      6    8     -2.25921553      1.03043814      0.00000000
  C      7    6      1.28797806      0.34644937     -0.00000000
  O      8    8      2.31273661      1.00537216     -0.00000000
  N      9    7      0.03446295      0.97739857     -0.00000000
  N     10    7     -1.17287765     -0.98229824      0.00000000
  C     11    6      1.20107039     -1.10433419     -0.00000000
  H     12    1      2.11220096     -1.67699125     -0.00000000
[GTO]
1    0
S    1    1.000000
   4.56324000E+03    1.96665000E-03 
S    1    1.000000
   6.82024000E+02    1.52306000E-02 
S    1    1.000000
   1.54973000E+02    7.61269000E-02 
S    1    1.000000
   4.44553000E+01    2.60801000E-01 
S    1    1.000000
   1.30290000E+01    6.16462000E-01 
S    1    1.000000
   1.82773000E+00    2.21006000E-01 
SP   3    1.000000
   2.09642000E+01    1.14660000E-01   4.02487000E-02 
   4.80331000E+00    9.19999000E-01   2.37594000E-01 
   1.45933000E+00   -3.03068000E-03   8.15854000E-01 
SP   1    1.000000
   4.83456000E-01    1.00000000E+00   1.00000000E+00 
SP   1    1.000000
   1.45585000E-01    1.00000000E+00   1.00000000E+00 
SP   1    1.000000
   4.38000000E-02    1.00000000E+00   1.00000000E+00 
SP   1    1.000000
   1.31927711E-02    1.00000000E+00   1.00000000E+00 
D    1    1.000000
   6.26000000E-01    1.00000000E+00 

2    0
S    3    1.000000
   3.38650000E+01    2.54938000E-02 
   5.09479000E+00    1.90373000E-01 
   1.15879000E+00    8.52161000E-01 
S    1    1.000000
   3.25840000E-01    1.00000000E+00 
S    1    1.000000
   1.02741000E-01    1.00000000E+00 
S    1    1.000000
   3.60000000E-02    1.00000000E+00 
P    1    1.000000
   7.50000000E-01    1.00000000E+00 

3    0
S    3    1.000000
   3.38650000E+01    2.54938000E-02 
   5.09479000E+00    1.90373000E-01 
   1.15879000E+00    8.52161000E-01 
S    1    1.000000
   3.25840000E-01    1.00000000E+00 
S    1    1.000000
   1.02741000E-01    1.00000000E+00 
S    1    1.000000
   3.60000000E-02    1.00000000E+00 
P    1    1.000000
   7.50000000E-01    1.00000000E+00 

4    0
S    3    1.000000
   3.38650000E+01    2.54938000E-02 
   5.09479000E+00    1.90373000E-01 
   1.15879000E+00    8.52161000E-01 
S    1    1.000000
   3.25840000E-01    1.00000000E+00 
S    1    1.000000
   1.02741000E-01    1.00000000E+00 
S    1    1.000000
   3.60000000E-02    1.00000000E+00 
P    1    1.000000
   7.50000000E-01    1.00000000E+00 

5    0
S    1    1.000000
   4.56324000E+03    1.96665000E-03 
S    1    1.000000
   6.82024000E+02    1.52306000E-02 
S    1    1.000000
   1.54973000E+02    7.61269000E-02 
S    1    1.000000
   4.44553000E+01    2.60801000E-01 
S    1    1.000000
   1.30290000E+01    6.16462000E-01 
S    1    1.000000
   1.82773000E+00    2.21006000E-01 
SP   3    1.000000
   2.09642000E+01    1.14660000E-01   4.02487000E-02 
   4.80331000E+00    9.19999000E-01   2.37594000E-01 
   1.45933000E+00   -3.03068000E-03   8.15854000E-01 
SP   1    1.000000
   4.83456000E-01    1.00000000E+00   1.00000000E+00 
SP   1    1.000000
   1.45585000E-01    1.00000000E+00   1.00000000E+00 
SP   1    1.000000
   4.38000000E-02    1.00000000E+00   1.00000000E+00 
SP   1    1.000000
   1.31927711E-02    1.00000000E+00   1.00000000E+00 
D    1    1.000000
   6.26000000E-01    1.00000000E+00 

6    0
S    1    1.000000
   8.58850000E+03    1.89515000E-03 
S    1    1.000000
   1.29723000E+03    1.43859000E-02 
S    1    1.000000
   2.99296000E+02    7.07320000E-02 
S    1    1.000000
   8.73771000E+01    2.40001000E-01 
S    1    1.000000
   2.56789000E+01    5.94797000E-01 
S    1    1.000000
   3.74004000E+00    2.80802000E-01 
SP   3    1.000000
   4.21175000E+01    1.13889000E-01   3.65114000E-02 
   9.62837000E+00    9.20811000E-01   2.37153000E-01 
   2.85332000E+00   -3.27447000E-03   8.19702000E-01 
SP   1    1.000000
   9.05661000E-01    1.00000000E+00   1.00000000E+00 
SP   1    1.000000
   2.55611000E-01    1.00000000E+00   1.00000000E+00 
SP   1    1.000000
   8.45000000E-02    1.00000000E+00   1.00000000E+00 
SP   1    1.000000
   2.54518072E-02    1.00000000E+00   1.00000000E+00 
D    1    1.000000
   1.29200000E+00    1.00000000E+00 

7    0
S    1    1.000000
   4.56324000E+03    1.96665000E-03 
S    1    1.000000
   6.82024000E+02    1.52306000E-02 
S    1    1.000000
   1.54973000E+02    7.61269000E-02 
S    1    1.000000
   4.44553000E+01    2.60801000E-01 
S    1    1.000000
   1.30290000E+01    6.16462000E-01 
S    1    1.000000
   1.82773000E+00    2.21006000E-01 
SP   3    1.000000
   2.09642000E+01    1.14660000E-01   4.02487000E-02 
   4.80331000E+00    9.19999000E-01   2.37594000E-01 
   1.45933000E+00   -3.03068000E-03   8.15854000E-01 
SP   1    1.000000
   4.83456000E-01    1.00000000E+00   1.00000000E+00 
SP   1    1.000000
   1.45585000E-01    1.00000000E+00   1.00000000E+00 
SP   1    1.000000
   4.38000000E-02    1.00000000E+00   1.00000000E+00 
SP   1    1.000000
   1.31927711E-02    1.00000000E+00   1.00000000E+00 
D    1    1.000000
   6.26000000E-01    1.00000000E+00 

8    0
S    1    1.000000
   8.58850000E+03    1.89515000E-03 
S    1    1.000000
   1.29723000E+03    1.43859000E-02 
S    1    1.000000
   2.99296000E+02    7.07320000E-02 
S    1    1.000000
   8.73771000E+01    2.40001000E-01 
S    1    1.000000
   2.56789000E+01    5.94797000E-01 
S    1    1.000000
   3.74004000E+00    2.80802000E-01 
SP   3    1.000000
   4.21175000E+01    1.13889000E-01   3.65114000E-02 
   9.62837000E+00    9.20811000E-01   2.37153000E-01 
   2.85332000E+00   -3.27447000E-03   8.19702000E-01 
SP   1    1.000000
   9.05661000E-01    1.00000000E+00   1.00000000E+00 
SP   1    1.000000
   2.55611000E-01    1.00000000E+00   1.00000000E+00 
SP   1    1.000000
   8.45000000E-02    1.00000000E+00   1.00000000E+00 
SP   1    1.000000
   2.54518072E-02    1.00000000E+00   1.00000000E+00 
D    1    1.000000
   1.29200000E+00    1.00000000E+00 

9    0
S    1    1.000000
   6.29348000E+03    1.96979000E-03 
S    1    1.000000
   9.49044000E+02    1.49613000E-02 
S    1    1.000000
   2.18776000E+02    7.35006000E-02 
S    1    1.000000
   6.36916000E+01    2.48937000E-01 
S    1    1.000000
   1.88282000E+01    6.02460000E-01 
S    1    1.000000
   2.72023000E+00    2.56202000E-01 
SP   3    1.000000
   3.06331000E+01    1.11906000E-01   3.83119000E-02 
   7.02614000E+00    9.21666000E-01   2.37403000E-01 
   2.11205000E+00   -2.56919000E-03   8.17592000E-01 
SP   1    1.000000
   6.84009000E-01    1.00000000E+00   1.00000000E+00 
SP   1    1.000000
   2.00878000E-01    1.00000000E+00   1.00000000E+00 
SP   1    1.000000
   6.39000000E-02    1.00000000E+00   1.00000000E+00 
SP   1    1.000000
   1.92469880E-02    1.00000000E+00   1.00000000E+00 
D    1    1.000000
   9.13000000E-01    1.00000000E+00 

10    0
S    1    1.000000
   6.29348000E+03    1.96979000E-03 
S    1    1.000000
   9.49044000E+02    1.49613000E-02 
S    1    1.000000
   2.18776000E+02    7.35006000E-02 
S    1    1.000000
   6.36916000E+01    2.48937000E-01 
S    1    1.000000
   1.88282000E+01    6.02460000E-01 
S    1    1.000000
   2.72023000E+00    2.56202000E-01 
SP   3    1.000000
   3.06331000E+01    1.11906000E-01   3.83119000E-02 
   7.02614000E+00    9.21666000E-01   2.37403000E-01 
   2.11205000E+00   -2.56919000E-03   8.17592000E-01 
SP   1    1.000000
   6.84009000E-01    1.00000000E+00   1.00000000E+00 
SP   1    1.000000
   2.00878000E-01    1.00000000E+00   1.00000000E+00 
SP   1    1.000000
   6.39000000E-02    1.00000000E+00   1.00000000E+00 
SP   1    1.000000
   1.92469880E-02    1.00000000E+00   1.00000000E+00 
D    1    1.000000
   9.13000000E-01    1.00000000E+00 

11    0
S    1    1.000000
   4.56324000E+03    1.96665000E-03 
S    1    1.000000
   6.82024000E+02    1.52306000E-02 
S    1    1.000000
   1.54973000E+02    7.61269000E-02 
S    1    1.000000
   4.44553000E+01    2.60801000E-01 
S    1    1.000000
   1.30290000E+01    6.16462000E-01 
S    1    1.000000
   1.82773000E+00    2.21006000E-01 
SP   3    1.000000
   2.09642000E+01    1.14660000E-01   4.02487000E-02 
   4.80331000E+00    9.19999000E-01   2.37594000E-01 
   1.45933000E+00   -3.03068000E-03   8.15854000E-01 
SP   1    1.000000
   4.83456000E-01    1.00000000E+00   1.00000000E+00 
SP   1    1.000000
   1.45585000E-01    1.00000000E+00   1.00000000E+00 
SP   1    1.000000
   4.38000000E-02    1.00000000E+00   1.00000000E+00 
SP   1    1.000000
   1.31927711E-02    1.00000000E+00   1.00000000E+00 
D    1    1.000000
   6.26000000E-01    1.00000000E+00 

12    0
S    3    1.000000
   3.38650000E+01    2.54938000E-02 
   5.09479000E+00    1.90373000E-01 
   1.15879000E+00    8.52161000E-01 
S    1    1.000000
   3.25840000E-01    1.00000000E+00 
S    1    1.000000
   1.02741000E-01    1.00000000E+00 
S    1    1.000000
   3.60000000E-02    1.00000000E+00 
P    1    1.000000
   7.50000000E-01    1.00000000E+00 

[MO]
Sym=X
Ene=0.176284
Spin=Alpha
Occup=1
1    -0.00013539457
2    -0.0010482537
3    -0.00522870675
4    -0.017954275
5    -0.0423949269
6    -0.0154981178
7    -0.0568895491
8    0.00027065157
9    3.66758886e-05
10    5.2237933e-16
11    0.000295405833
12    0.00042442868
13    0.000302656683
14    -1.6684721e-15
15    -0.00116654366
16    -0.000248288203
17    -0.000715221166
18    1.92802417e-16
19    -0.00263019375
20    -4.69892178e-05
21    -0.00141754216
22    4.86227173e-14
23    -0.000200957391
24    -8.0560745e-06
25    -0.000249808873
26    -6.1104435e-14
27    0.000248547914
28    -2.67532271e-16
29    6.25629625e-06
30    -7.91872893e-16
31    0.000196799928
32    3.32395705e-06
33    5.10608066e-05
34    8.88163593e-05
35    0.00031826445
36    9.50153197e-06
37    -6.48815304e-06
38    1.46347555e-15
39    -1.76098745e-05
40    8.27784462e-06
41    -0.000435383803
42    -0.000700007484
43    5.27014016e-05
44    3.00132214e-05
45    2.87651233e-17
46    1.07998413e-05
47    4.54628225e-05
48    -5.00079268e-06
49    0.000226143612
50    5.27578871e-06
51    -4.63095659e-06
52    -1.18568111e-15
53    6.78584011e-07
54    5.27408778e-06
55    2.61593375e-05
56    9.04004902e-05
57    0.000208183717
58    5.57873024e-05
59    0.00029740632
60    -2.71823331e-06
61    1.47349226e-06
62    1.76810656e-15
63    5.90577891e-05
64    6.62375513e-06
65    -4.90881568e-06
66    1.4436729e-16
67    -0.000626535156
68    -0.000401648252
69    0.000212244096
70    4.93200872e-15
71    -1.49714348e-06
72    -0.000165952872
73    -0.000151004077
74    7.01769129e-14
75    3.07579526e-05
76    -8.87202778e-05
77    4.52844467e-05
78    5.39896932e-14
79    5.43374386e-06
80    -5.62763092e-16
81    8.80036637e-06
82    -1.13076369e-15
83    6.15500177e-06
84    -7.20140576e-10
85    -5.18036549e-10
86    -3.82669778e-08
87    3.01887102e-09
88    -1.31059602e-06
89    -5.12055997e-06
90    2.75565927e-06
91    -1.96855644e-06
92    3.76188168e-07
93    6.46538318e-16
94    1.29419803e-05
95    1.01445675e-05
96    -2.20488746e-06
97    2.42695737e-15
98    -6.08481587e-05
99    -2.78110892e-05
100    1.44852026e-05
101    2.79765904e-15
102    -0.000419979843
103    -0.0001096646
104    6.94846e-05
105    -2.8311413e-15
106    4.25888191e-05
107    8.47695083e-05
108    9.93413823e-05
109    -2.41325156e-14
110    -3.2648692e-07
111    -1.45522005e-16
112    1.01085165e-06
113    4.07959193e-16
114    1.80146956e-06
115    -1.66868573e-05
116    -0.000129160854
117    -0.000644578061
118    -0.00221264071
119    -0.0052378761
120    -0.00202577605
121    -0.00701061433
122    3.61712482e-06
123    -8.92524705e-05
124    -4.27106572e-15
125    0.000515639436
126    -4.3719916e-05
127    -0.000613338205
128    -3.87861353e-15
129    -0.000653529836
130    0.000543089318
131    0.000919898898
132    -1.34913706e-14
133    -0.00180658677
134    0.000749400006
135    0.000993082024
136    5.98694999e-14
137    -0.000308426296
138    -8.73422173e-05
139    9.18319099e-06
140    -4.04769341e-14
141    4.92028368e-05
142    -3.0054996e-16
143    -6.76236055e-05
144    -3.51847218e-16
145    -0.000343750531
146    7.50859322e-09
147    9.19792551e-08
148    2.06855775e-07
149    1.62934091e-06
150    -5.38302494e-06
151    -3.330278e-05
152    2.84787198e-05
153    1.04657221e-05
154    2.50339207e-05
155    -2.08181776e-15
156    6.47085385e-05
157    -3.58060804e-05
158    -3.49523712e-05
159    -5.36477477e-15
160    -0.000204596055
161    0.000122227846
162    2.16869064e-07
163    -3.90028582e-15
164    -0.000816038513
165    0.000119779172
166    5.2204716e-05
167    -1.37727561e-14
168    -0.00178415719
169    0.00035113463
170    0.000107751794
171    -3.37671763e-15
172    2.38634565e-05
173    6.64969527e-16
174    2.10773411e-07
175    7.02502755e-16
176    -2.56464111e-05
177    1.74409288e-09
178    5.01752601e-08
179    -1.32824716e-08
180    9.64146168e-07
181    -7.17797053e-06
182    -3.5250335e-05
183    2.59081497e-05
184    -2.44961181e-05
185    1.36364413e-05
186    8.59409864e-16
187    3.39403e-05
188    7.80589493e-05
189    -2.99190677e-05
190    -6.55938417e-15
191    0.00028297
192    -0.00018655001
193    -0.00021990048
194    1.29659188e-14
195    0.000659922553
196    -0.0002591408
197    -0.000235241531
198    -5.42131898e-14
199    0.000627950513
200    0.000612792311
201    -0.000180150378
202    -3.55217317e-14
203    -3.13900588e-05
204    2.88058169e-16
205    -2.57778923e-06
206    -7.30956673e-16
207    1.27481746e-05
208    4.77901772e-08
209    3.90998985e-07
210    1.73935622e-06
211    6.66239486e-06
212    9.51513049e-06
213    -1.03362171e-05
214    4.31458598e-05
215    -3.46779427e-05
216    1.35081999e-05
217    2.85535471e-15
218    -2.41229281e-05
219    5.52055475e-06
220    1.16603261e-05
221    -1.71433388e-15
222    0.000309992999
223    0.000156836053
224    0.000177484956
225    1.34063655e-14
226    0.00113438826
227    0.000465218916
228    0.000218194128
229    -4.50075649e-14
230    0.000622578192
231    8.4321251e-05
232    0.0002127248
233    -9.57621655e-15
234    1.35155598e-05
235    1.71761853e-17
236    4.17887117e-06
237    -2.55346531e-16
238    1.76439882e-05
239    0.00110077987
240    0.00852197033
241    0.0425100042
242    0.145958119
243    0.344777757
244    0.12608585
245    0.461545823
246    -0.000162418487
247    0.000237787412
248    -7.09783207e-16
249    0.00178603395
250    -1.29786296e-05
251    -0.00014093094
252    -5.83727101e-15
253    0.00194630909
254    -0.000861719209
255    0.000637260295
256    3.70586773e-15
257    0.0043727908
258    -0.00100122452
259    0.00106319618
260    -6.82309702e-14
261    0.000281107857
262    0.000114502231
263    0.000229737594
264    7.01688271e-14
265    4.6364308e-05
266    -6.75676075e-16
267    -0.000100504151
268    -1.68090124e-16
269    6.92477408e-05
270    0.00037218715
271    0.000443438164
272    0.000328619351
273    0.000499313871
274    -0.000253705994
275    0.000153048532
276    -9.4600525e-16
[5D]