[Molden Format]
[Atoms] (Angs)
  C      1    6     -0.00714236     -1.70213747     -0.00000000
  H      2    1     -2.06882847     -1.44022412      0.00000000
  H      3    1     -0.12337987     -2.77567521      0.00000000
  H      4    1      0.04651892      1.98813947     -0.00000000
  C      5    6     -1.21953563      0.40211669      0.00000000
  O      6    8     -2.25921553      1.03043814      0.00000000
  C      7    6      1.28797806      0.34644937     -0.00000000
  O      8    8      2.31273661      1.00537216     -0.00000000
  N      9    7      0.03446295      0.97739857     -0.00000000
  N     10    7     -1.17287765     -0.98229824      0.00000000
  C     11    6      1.20107039     -1.10433419     -0.00000000
  H     12    1      2.11220096     -1.67699125     -0.00000000
[GTO]
1    0
S    1    1.000000
   4.56324000E+03    1.96665000E-03 
S    1    1.000000
   6.82024000E+02    1.52306000E-02 
S    1    1.000000
   1.54973000E+02    7.61269000E-02 
S    1    1.000000
   4.44553000E+01    2.60801000E-01 
S    1    1.000000
   1.30290000E+01    6.16462000E-01 
S    1    1.000000
   1.82773000E+00    2.21006000E-01 
SP   3    1.000000
   2.09642000E+01    1.14660000E-01   4.02487000E-02 
   4.80331000E+00    9.19999000E-01   2.37594000E-01 
   1.45933000E+00   -3.03068000E-03   8.15854000E-01 
SP   1    1.000000
   4.83456000E-01    1.00000000E+00   1.00000000E+00 
SP   1    1.000000
   1.45585000E-01    1.00000000E+00   1.00000000E+00 
SP   1    1.000000
   4.38000000E-02    1.00000000E+00   1.00000000E+00 
SP   1    1.000000
   1.31927711E-02    1.00000000E+00   1.00000000E+00 
D    1    1.000000
   6.26000000E-01    1.00000000E+00 

2    0
S    3    1.000000
   3.38650000E+01    2.54938000E-02 
   5.09479000E+00    1.90373000E-01 
   1.15879000E+00    8.52161000E-01 
S    1    1.000000
   3.25840000E-01    1.00000000E+00 
S    1    1.000000
   1.02741000E-01    1.00000000E+00 
S    1    1.000000
   3.60000000E-02    1.00000000E+00 
P    1    1.000000
   7.50000000E-01    1.00000000E+00 

3    0
S    3    1.000000
   3.38650000E+01    2.54938000E-02 
   5.09479000E+00    1.90373000E-01 
   1.15879000E+00    8.52161000E-01 
S    1    1.000000
   3.25840000E-01    1.00000000E+00 
S    1    1.000000
   1.02741000E-01    1.00000000E+00 
S    1    1.000000
   3.60000000E-02    1.00000000E+00 
P    1    1.000000
   7.50000000E-01    1.00000000E+00 

4    0
S    3    1.000000
   3.38650000E+01    2.54938000E-02 
   5.09479000E+00    1.90373000E-01 
   1.15879000E+00    8.52161000E-01 
S    1    1.000000
   3.25840000E-01    1.00000000E+00 
S    1    1.000000
   1.02741000E-01    1.00000000E+00 
S    1    1.000000
   3.60000000E-02    1.00000000E+00 
P    1    1.000000
   7.50000000E-01    1.00000000E+00 

5    0
S    1    1.000000
   4.56324000E+03    1.96665000E-03 
S    1    1.000000
   6.82024000E+02    1.52306000E-02 
S    1    1.000000
   1.54973000E+02    7.61269000E-02 
S    1    1.000000
   4.44553000E+01    2.60801000E-01 
S    1    1.000000
   1.30290000E+01    6.16462000E-01 
S    1    1.000000
   1.82773000E+00    2.21006000E-01 
SP   3    1.000000
   2.09642000E+01    1.14660000E-01   4.02487000E-02 
   4.80331000E+00    9.19999000E-01   2.37594000E-01 
   1.45933000E+00   -3.03068000E-03   8.15854000E-01 
SP   1    1.000000
   4.83456000E-01    1.00000000E+00   1.00000000E+00 
SP   1    1.000000
   1.45585000E-01    1.00000000E+00   1.00000000E+00 
SP   1    1.000000
   4.38000000E-02    1.00000000E+00   1.00000000E+00 
SP   1    1.000000
   1.31927711E-02    1.00000000E+00   1.00000000E+00 
D    1    1.000000
   6.26000000E-01    1.00000000E+00 

6    0
S    1    1.000000
   8.58850000E+03    1.89515000E-03 
S    1    1.000000
   1.29723000E+03    1.43859000E-02 
S    1    1.000000
   2.99296000E+02    7.07320000E-02 
S    1    1.000000
   8.73771000E+01    2.40001000E-01 
S    1    1.000000
   2.56789000E+01    5.94797000E-01 
S    1    1.000000
   3.74004000E+00    2.80802000E-01 
SP   3    1.000000
   4.21175000E+01    1.13889000E-01   3.65114000E-02 
   9.62837000E+00    9.20811000E-01   2.37153000E-01 
   2.85332000E+00   -3.27447000E-03   8.19702000E-01 
SP   1    1.000000
   9.05661000E-01    1.00000000E+00   1.00000000E+00 
SP   1    1.000000
   2.55611000E-01    1.00000000E+00   1.00000000E+00 
SP   1    1.000000
   8.45000000E-02    1.00000000E+00   1.00000000E+00 
SP   1    1.000000
   2.54518072E-02    1.00000000E+00   1.00000000E+00 
D    1    1.000000
   1.29200000E+00    1.00000000E+00 

7    0
S    1    1.000000
   4.56324000E+03    1.96665000E-03 
S    1    1.000000
   6.82024000E+02    1.52306000E-02 
S    1    1.000000
   1.54973000E+02    7.61269000E-02 
S    1    1.000000
   4.44553000E+01    2.60801000E-01 
S    1    1.000000
   1.30290000E+01    6.16462000E-01 
S    1    1.000000
   1.82773000E+00    2.21006000E-01 
SP   3    1.000000
   2.09642000E+01    1.14660000E-01   4.02487000E-02 
   4.80331000E+00    9.19999000E-01   2.37594000E-01 
   1.45933000E+00   -3.03068000E-03   8.15854000E-01 
SP   1    1.000000
   4.83456000E-01    1.00000000E+00   1.00000000E+00 
SP   1    1.000000
   1.45585000E-01    1.00000000E+00   1.00000000E+00 
SP   1    1.000000
   4.38000000E-02    1.00000000E+00   1.00000000E+00 
SP   1    1.000000
   1.31927711E-02    1.00000000E+00   1.00000000E+00 
D    1    1.000000
   6.26000000E-01    1.00000000E+00 

8    0
S    1    1.000000
   8.58850000E+03    1.89515000E-03 
S    1    1.000000
   1.29723000E+03    1.43859000E-02 
S    1    1.000000
   2.99296000E+02    7.07320000E-02 
S    1    1.000000
   8.73771000E+01    2.40001000E-01 
S    1    1.000000
   2.56789000E+01    5.94797000E-01 
S    1    1.000000
   3.74004000E+00    2.80802000E-01 
SP   3    1.000000
   4.21175000E+01    1.13889000E-01   3.65114000E-02 
   9.62837000E+00    9.20811000E-01   2.37153000E-01 
   2.85332000E+00   -3.27447000E-03   8.19702000E-01 
SP   1    1.000000
   9.05661000E-01    1.00000000E+00   1.00000000E+00 
SP   1    1.000000
   2.55611000E-01    1.00000000E+00   1.00000000E+00 
SP   1    1.000000
   8.45000000E-02    1.00000000E+00   1.00000000E+00 
SP   1    1.000000
   2.54518072E-02    1.00000000E+00   1.00000000E+00 
D    1    1.000000
   1.29200000E+00    1.00000000E+00 

9    0
S    1    1.000000
   6.29348000E+03    1.96979000E-03 
S    1    1.000000
   9.49044000E+02    1.49613000E-02 
S    1    1.000000
   2.18776000E+02    7.35006000E-02 
S    1    1.000000
   6.36916000E+01    2.48937000E-01 
S    1    1.000000
   1.88282000E+01    6.02460000E-01 
S    1    1.000000
   2.72023000E+00    2.56202000E-01 
SP   3    1.000000
   3.06331000E+01    1.11906000E-01   3.83119000E-02 
   7.02614000E+00    9.21666000E-01   2.37403000E-01 
   2.11205000E+00   -2.56919000E-03   8.17592000E-01 
SP   1    1.000000
   6.84009000E-01    1.00000000E+00   1.00000000E+00 
SP   1    1.000000
   2.00878000E-01    1.00000000E+00   1.00000000E+00 
SP   1    1.000000
   6.39000000E-02    1.00000000E+00   1.00000000E+00 
SP   1    1.000000
   1.92469880E-02    1.00000000E+00   1.00000000E+00 
D    1    1.000000
   9.13000000E-01    1.00000000E+00 

10    0
S    1    1.000000
   6.29348000E+03    1.96979000E-03 
S    1    1.000000
   9.49044000E+02    1.49613000E-02 
S    1    1.000000
   2.18776000E+02    7.35006000E-02 
S    1    1.000000
   6.36916000E+01    2.48937000E-01 
S    1    1.000000
   1.88282000E+01    6.02460000E-01 
S    1    1.000000
   2.72023000E+00    2.56202000E-01 
SP   3    1.000000
   3.06331000E+01    1.11906000E-01   3.83119000E-02 
   7.02614000E+00    9.21666000E-01   2.37403000E-01 
   2.11205000E+00   -2.56919000E-03   8.17592000E-01 
SP   1    1.000000
   6.84009000E-01    1.00000000E+00   1.00000000E+00 
SP   1    1.000000
   2.00878000E-01    1.00000000E+00   1.00000000E+00 
SP   1    1.000000
   6.39000000E-02    1.00000000E+00   1.00000000E+00 
SP   1    1.000000
   1.92469880E-02    1.00000000E+00   1.00000000E+00 
D    1    1.000000
   9.13000000E-01    1.00000000E+00 

11    0
S    1    1.000000
   4.56324000E+03    1.96665000E-03 
S    1    1.000000
   6.82024000E+02    1.52306000E-02 
S    1    1.000000
   1.54973000E+02    7.61269000E-02 
S    1    1.000000
   4.44553000E+01    2.60801000E-01 
S    1    1.000000
   1.30290000E+01    6.16462000E-01 
S    1    1.000000
   1.82773000E+00    2.21006000E-01 
SP   3    1.000000
   2.09642000E+01    1.14660000E-01   4.02487000E-02 
   4.80331000E+00    9.19999000E-01   2.37594000E-01 
   1.45933000E+00   -3.03068000E-03   8.15854000E-01 
SP   1    1.000000
   4.83456000E-01    1.00000000E+00   1.00000000E+00 
SP   1    1.000000
   1.45585000E-01    1.00000000E+00   1.00000000E+00 
SP   1    1.000000
   4.38000000E-02    1.00000000E+00   1.00000000E+00 
SP   1    1.000000
   1.31927711E-02    1.00000000E+00   1.00000000E+00 
D    1    1.000000
   6.26000000E-01    1.00000000E+00 

12    0
S    3    1.000000
   3.38650000E+01    2.54938000E-02 
   5.09479000E+00    1.90373000E-01 
   1.15879000E+00    8.52161000E-01 
S    1    1.000000
   3.25840000E-01    1.00000000E+00 
S    1    1.000000
   1.02741000E-01    1.00000000E+00 
S    1    1.000000
   3.60000000E-02    1.00000000E+00 
P    1    1.000000
   7.50000000E-01    1.00000000E+00 

[MO]
Sym=X
Ene=0.116183
Spin=Alpha
Occup=1
1    0.00110928214
2    0.00858765229
3    0.0428387978
4    0.147079329
5    0.347445605
6    0.126695914
7    0.465273805
8    -0.00111486233
9    0.000314998195
10    -8.87149498e-16
11    0.00167010889
12    0.00106082885
13    -6.57881705e-05
14    2.35912455e-15
15    0.00148114084
16    -0.000301449797
17    0.000859201818
18    -8.60947945e-15
19    0.000914422091
20    -0.000703914547
21    0.00057008898
22    8.70965383e-14
23    -0.000152149399
24    7.52270101e-05
25    -2.91132594e-05
26    -6.30895848e-14
27    0.00036379837
28    -3.29977908e-16
29    -0.000237547263
30    7.87260512e-17
31    8.89274996e-05
32    2.89413531e-05
33    5.13481129e-05
34    3.58559492e-05
35    -0.000103943607
36    4.66165001e-05
37    1.54902945e-05
38    -2.46284459e-16
39    0.000380094608
40    0.000463191982
41    0.000241155507
42    0.000138489477
43    4.15118888e-05
44    0.000307680562
45    -1.39312134e-16
46    1.22355139e-05
47    -5.74689909e-05
48    0.000240960099
49    0.000253187663
50    5.64276768e-06
51    4.91064048e-06
52    7.11861506e-16
53    3.17646227e-07
54    2.49038224e-06
55    1.22016053e-05
56    4.27298487e-05
57    9.18444142e-05
58    -1.03689259e-05
59    0.000158142255
60    -4.83890876e-06
61    2.11893147e-05
62    2.25299081e-15
63    0.000109310054
64    1.85301177e-05
65    -8.41945567e-05
66    2.17774871e-16
67    0.000233253742
68    -0.000629771075
69    0.000397555996
70    4.77608136e-15
71    0.000671937594
72    -0.00031824638
73    0.000578808563
74    9.91194172e-14
75    0.000507192301
76    0.000176579246
77    8.02207816e-06
78    7.96524253e-14
79    -1.82886995e-05
80    5.02590407e-16
81    3.88651822e-06
82    -6.92617655e-16
83    -4.47786328e-05
84    -2.41009697e-09
85    7.53977363e-09
86    -1.50342361e-07
87    1.88445937e-07
88    -6.32932321e-06
89    -2.5723106e-05
90    1.42751489e-05
91    -4.10419619e-06
92    1.88756082e-06
93    1.5237339e-15
94    6.97742201e-05
95    2.64490813e-05
96    -2.60290704e-05
97    1.45403184e-15
98    -0.00030347899
99    -0.000156635754
100    8.67462002e-05
101    6.85689955e-15
102    -0.00102014091
103    -0.000159434933
104    0.000136830191
105    -7.76023675e-15
106    -0.00135398727
107    -0.000276159864
108    4.5596716e-05
109    -2.64212588e-14
110    -2.41704904e-06
111    -7.78787424e-16
112    6.68230734e-07
113    4.71505102e-16
114    -5.42314291e-06
115    -5.40045152e-06
116    -4.17557147e-05
117    -0.000208673411
118    -0.000714956137
119    -0.00170270153
120    -0.000671039944
121    -0.00223170512
122    1.0731052e-05
123    2.42026879e-05
124    2.22057569e-16
125    8.22107518e-05
126    -3.44234063e-05
127    -0.000112626905
128    3.37207173e-16
129    0.00021391155
130    -0.000195827786
131    -0.000132048408
132    -4.18804685e-15
133    -0.000122036703
134    0.00024740809
135    0.000214037352
136    1.00062269e-13
137    4.49587541e-05
138    0.000192865617
139    -7.22960164e-05
140    -3.24989204e-14
141    3.37920691e-05
142    -1.51630904e-16
143    -4.44279878e-06
144    -3.4304725e-16
145    -4.80736542e-05
146    2.89971506e-09
147    1.97346295e-08
148    1.13776928e-07
149    3.2631907e-07
150    1.45313808e-06
151    3.28509944e-06
152    -1.30796184e-07
153    1.66354411e-06
154    3.06676177e-06
155    5.23303414e-16
156    -1.12566584e-05
157    -4.42359499e-06
158    -1.83585604e-05
159    -2.78391331e-15
160    0.000112216548
161    -1.76760406e-06
162    -2.36607383e-07
163    7.10160706e-15
164    -9.77952722e-05
165    -6.7123172e-06
166    -1.40960449e-05
167    -1.9228804e-14
168    4.41342977e-05
169    7.26775322e-06
170    -4.95888719e-05
171    3.86532506e-15
172    2.84454215e-06
173    -7.62768175e-17
174    -7.45030525e-07
175    -2.76142315e-16
176    -6.96386533e-06
177    1.10997661e-08
178    1.22857152e-07
179    3.26749854e-07
180    2.17318274e-06
181    -4.36495592e-06
182    -3.38622036e-05
183    2.74325431e-05
184    1.54016207e-07
185    8.08782817e-06
186    2.37364498e-15
187    6.6940711e-05
188    -9.36745161e-06
189    -2.86267472e-05
190    -3.96390212e-15
191    2.84798086e-05
192    -4.58914991e-05
193    2.42384048e-05
194    1.98857788e-14
195    8.41344378e-05
196    0.000176514839
197    -0.000539649296
198    -6.72577999e-14
199    0.000745832808
200    -0.000305156106
201    -0.000125221279
202    -6.72802339e-14
203    7.77277364e-06
204    -2.35591101e-16
205    -2.22999583e-06
206    -4.0367711e-16
207    5.17366764e-06
208    -2.92818423e-07
209    -2.05725678e-06
210    -1.14413413e-05
211    -3.41866203e-05
212    -0.000129214957
213    -0.000275044933
214    -6.15874539e-05
215    6.79238244e-05
216    -4.07263473e-05
217    2.94076949e-15
218    0.000671523247
219    0.000731774725
220    -0.000443348921
221    -6.72251107e-15
222    -9.60325892e-05
223    -1.81491602e-05
224    8.03932864e-05
225    2.24732297e-14
226    -0.0013264626
227    -0.000458560445
228    0.000366695333
229    -6.89980688e-14
230    -0.00059071262
231    -0.000320391961
232    5.17640153e-05
233    -2.75137116e-14
234    -0.000328094249
235    5.31512546e-17
236    -0.000130153134
237    1.68212746e-16
238    0.000182745549
239    -1.16669874e-05
240    -9.04763061e-05
241    -0.000450351583
242    -0.00155075457
243    -0.00362389597
244    -0.00125218051
245    -0.00503856189
246    -0.000148504974
247    -7.61648813e-05
248    2.95816879e-16
249    0.000148556512
250    -0.000239085443
251    -0.000106864689
252    -2.59425811e-15
253    -0.000819923069
254    0.000601409895
255    -0.000270268452
256    1.05702788e-14
257    0.00106127208
258    -1.18312702e-05
259    -0.000650411348
260    -9.82150782e-14
261    -0.00022662786
262    -0.000171697747
263    -0.000112768259
264    6.66874324e-14
265    0.000163096986
266    4.61263324e-16
267    5.20924408e-05
268    -6.5795952e-16
269    0.000150043858
270    2.15379201e-05
271    1.68398557e-05
272    -0.000362251621
273    -0.000291265124
274    -8.23963404e-05
275    -1.68747401e-05
276    -6.57599268e-16
[5D]