[Molden Format]
[Atoms] (Angs)
  C      1    6     -0.00714236     -1.70213747     -0.00000000
  H      2    1     -2.06882847     -1.44022412      0.00000000
  H      3    1     -0.12337987     -2.77567521      0.00000000
  H      4    1      0.04651892      1.98813947     -0.00000000
  C      5    6     -1.21953563      0.40211669      0.00000000
  O      6    8     -2.25921553      1.03043814      0.00000000
  C      7    6      1.28797806      0.34644937     -0.00000000
  O      8    8      2.31273661      1.00537216     -0.00000000
  N      9    7      0.03446295      0.97739857     -0.00000000
  N     10    7     -1.17287765     -0.98229824      0.00000000
  C     11    6      1.20107039     -1.10433419     -0.00000000
  H     12    1      2.11220096     -1.67699125     -0.00000000
[GTO]
1    0
S    1    1.000000
   4.56324000E+03    1.96665000E-03 
S    1    1.000000
   6.82024000E+02    1.52306000E-02 
S    1    1.000000
   1.54973000E+02    7.61269000E-02 
S    1    1.000000
   4.44553000E+01    2.60801000E-01 
S    1    1.000000
   1.30290000E+01    6.16462000E-01 
S    1    1.000000
   1.82773000E+00    2.21006000E-01 
SP   3    1.000000
   2.09642000E+01    1.14660000E-01   4.02487000E-02 
   4.80331000E+00    9.19999000E-01   2.37594000E-01 
   1.45933000E+00   -3.03068000E-03   8.15854000E-01 
SP   1    1.000000
   4.83456000E-01    1.00000000E+00   1.00000000E+00 
SP   1    1.000000
   1.45585000E-01    1.00000000E+00   1.00000000E+00 
SP   1    1.000000
   4.38000000E-02    1.00000000E+00   1.00000000E+00 
SP   1    1.000000
   1.31927711E-02    1.00000000E+00   1.00000000E+00 
D    1    1.000000
   6.26000000E-01    1.00000000E+00 

2    0
S    3    1.000000
   3.38650000E+01    2.54938000E-02 
   5.09479000E+00    1.90373000E-01 
   1.15879000E+00    8.52161000E-01 
S    1    1.000000
   3.25840000E-01    1.00000000E+00 
S    1    1.000000
   1.02741000E-01    1.00000000E+00 
S    1    1.000000
   3.60000000E-02    1.00000000E+00 
P    1    1.000000
   7.50000000E-01    1.00000000E+00 

3    0
S    3    1.000000
   3.38650000E+01    2.54938000E-02 
   5.09479000E+00    1.90373000E-01 
   1.15879000E+00    8.52161000E-01 
S    1    1.000000
   3.25840000E-01    1.00000000E+00 
S    1    1.000000
   1.02741000E-01    1.00000000E+00 
S    1    1.000000
   3.60000000E-02    1.00000000E+00 
P    1    1.000000
   7.50000000E-01    1.00000000E+00 

4    0
S    3    1.000000
   3.38650000E+01    2.54938000E-02 
   5.09479000E+00    1.90373000E-01 
   1.15879000E+00    8.52161000E-01 
S    1    1.000000
   3.25840000E-01    1.00000000E+00 
S    1    1.000000
   1.02741000E-01    1.00000000E+00 
S    1    1.000000
   3.60000000E-02    1.00000000E+00 
P    1    1.000000
   7.50000000E-01    1.00000000E+00 

5    0
S    1    1.000000
   4.56324000E+03    1.96665000E-03 
S    1    1.000000
   6.82024000E+02    1.52306000E-02 
S    1    1.000000
   1.54973000E+02    7.61269000E-02 
S    1    1.000000
   4.44553000E+01    2.60801000E-01 
S    1    1.000000
   1.30290000E+01    6.16462000E-01 
S    1    1.000000
   1.82773000E+00    2.21006000E-01 
SP   3    1.000000
   2.09642000E+01    1.14660000E-01   4.02487000E-02 
   4.80331000E+00    9.19999000E-01   2.37594000E-01 
   1.45933000E+00   -3.03068000E-03   8.15854000E-01 
SP   1    1.000000
   4.83456000E-01    1.00000000E+00   1.00000000E+00 
SP   1    1.000000
   1.45585000E-01    1.00000000E+00   1.00000000E+00 
SP   1    1.000000
   4.38000000E-02    1.00000000E+00   1.00000000E+00 
SP   1    1.000000
   1.31927711E-02    1.00000000E+00   1.00000000E+00 
D    1    1.000000
   6.26000000E-01    1.00000000E+00 

6    0
S    1    1.000000
   8.58850000E+03    1.89515000E-03 
S    1    1.000000
   1.29723000E+03    1.43859000E-02 
S    1    1.000000
   2.99296000E+02    7.07320000E-02 
S    1    1.000000
   8.73771000E+01    2.40001000E-01 
S    1    1.000000
   2.56789000E+01    5.94797000E-01 
S    1    1.000000
   3.74004000E+00    2.80802000E-01 
SP   3    1.000000
   4.21175000E+01    1.13889000E-01   3.65114000E-02 
   9.62837000E+00    9.20811000E-01   2.37153000E-01 
   2.85332000E+00   -3.27447000E-03   8.19702000E-01 
SP   1    1.000000
   9.05661000E-01    1.00000000E+00   1.00000000E+00 
SP   1    1.000000
   2.55611000E-01    1.00000000E+00   1.00000000E+00 
SP   1    1.000000
   8.45000000E-02    1.00000000E+00   1.00000000E+00 
SP   1    1.000000
   2.54518072E-02    1.00000000E+00   1.00000000E+00 
D    1    1.000000
   1.29200000E+00    1.00000000E+00 

7    0
S    1    1.000000
   4.56324000E+03    1.96665000E-03 
S    1    1.000000
   6.82024000E+02    1.52306000E-02 
S    1    1.000000
   1.54973000E+02    7.61269000E-02 
S    1    1.000000
   4.44553000E+01    2.60801000E-01 
S    1    1.000000
   1.30290000E+01    6.16462000E-01 
S    1    1.000000
   1.82773000E+00    2.21006000E-01 
SP   3    1.000000
   2.09642000E+01    1.14660000E-01   4.02487000E-02 
   4.80331000E+00    9.19999000E-01   2.37594000E-01 
   1.45933000E+00   -3.03068000E-03   8.15854000E-01 
SP   1    1.000000
   4.83456000E-01    1.00000000E+00   1.00000000E+00 
SP   1    1.000000
   1.45585000E-01    1.00000000E+00   1.00000000E+00 
SP   1    1.000000
   4.38000000E-02    1.00000000E+00   1.00000000E+00 
SP   1    1.000000
   1.31927711E-02    1.00000000E+00   1.00000000E+00 
D    1    1.000000
   6.26000000E-01    1.00000000E+00 

8    0
S    1    1.000000
   8.58850000E+03    1.89515000E-03 
S    1    1.000000
   1.29723000E+03    1.43859000E-02 
S    1    1.000000
   2.99296000E+02    7.07320000E-02 
S    1    1.000000
   8.73771000E+01    2.40001000E-01 
S    1    1.000000
   2.56789000E+01    5.94797000E-01 
S    1    1.000000
   3.74004000E+00    2.80802000E-01 
SP   3    1.000000
   4.21175000E+01    1.13889000E-01   3.65114000E-02 
   9.62837000E+00    9.20811000E-01   2.37153000E-01 
   2.85332000E+00   -3.27447000E-03   8.19702000E-01 
SP   1    1.000000
   9.05661000E-01    1.00000000E+00   1.00000000E+00 
SP   1    1.000000
   2.55611000E-01    1.00000000E+00   1.00000000E+00 
SP   1    1.000000
   8.45000000E-02    1.00000000E+00   1.00000000E+00 
SP   1    1.000000
   2.54518072E-02    1.00000000E+00   1.00000000E+00 
D    1    1.000000
   1.29200000E+00    1.00000000E+00 

9    0
S    1    1.000000
   6.29348000E+03    1.96979000E-03 
S    1    1.000000
   9.49044000E+02    1.49613000E-02 
S    1    1.000000
   2.18776000E+02    7.35006000E-02 
S    1    1.000000
   6.36916000E+01    2.48937000E-01 
S    1    1.000000
   1.88282000E+01    6.02460000E-01 
S    1    1.000000
   2.72023000E+00    2.56202000E-01 
SP   3    1.000000
   3.06331000E+01    1.11906000E-01   3.83119000E-02 
   7.02614000E+00    9.21666000E-01   2.37403000E-01 
   2.11205000E+00   -2.56919000E-03   8.17592000E-01 
SP   1    1.000000
   6.84009000E-01    1.00000000E+00   1.00000000E+00 
SP   1    1.000000
   2.00878000E-01    1.00000000E+00   1.00000000E+00 
SP   1    1.000000
   6.39000000E-02    1.00000000E+00   1.00000000E+00 
SP   1    1.000000
   1.92469880E-02    1.00000000E+00   1.00000000E+00 
D    1    1.000000
   9.13000000E-01    1.00000000E+00 

10    0
S    1    1.000000
   6.29348000E+03    1.96979000E-03 
S    1    1.000000
   9.49044000E+02    1.49613000E-02 
S    1    1.000000
   2.18776000E+02    7.35006000E-02 
S    1    1.000000
   6.36916000E+01    2.48937000E-01 
S    1    1.000000
   1.88282000E+01    6.02460000E-01 
S    1    1.000000
   2.72023000E+00    2.56202000E-01 
SP   3    1.000000
   3.06331000E+01    1.11906000E-01   3.83119000E-02 
   7.02614000E+00    9.21666000E-01   2.37403000E-01 
   2.11205000E+00   -2.56919000E-03   8.17592000E-01 
SP   1    1.000000
   6.84009000E-01    1.00000000E+00   1.00000000E+00 
SP   1    1.000000
   2.00878000E-01    1.00000000E+00   1.00000000E+00 
SP   1    1.000000
   6.39000000E-02    1.00000000E+00   1.00000000E+00 
SP   1    1.000000
   1.92469880E-02    1.00000000E+00   1.00000000E+00 
D    1    1.000000
   9.13000000E-01    1.00000000E+00 

11    0
S    1    1.000000
   4.56324000E+03    1.96665000E-03 
S    1    1.000000
   6.82024000E+02    1.52306000E-02 
S    1    1.000000
   1.54973000E+02    7.61269000E-02 
S    1    1.000000
   4.44553000E+01    2.60801000E-01 
S    1    1.000000
   1.30290000E+01    6.16462000E-01 
S    1    1.000000
   1.82773000E+00    2.21006000E-01 
SP   3    1.000000
   2.09642000E+01    1.14660000E-01   4.02487000E-02 
   4.80331000E+00    9.19999000E-01   2.37594000E-01 
   1.45933000E+00   -3.03068000E-03   8.15854000E-01 
SP   1    1.000000
   4.83456000E-01    1.00000000E+00   1.00000000E+00 
SP   1    1.000000
   1.45585000E-01    1.00000000E+00   1.00000000E+00 
SP   1    1.000000
   4.38000000E-02    1.00000000E+00   1.00000000E+00 
SP   1    1.000000
   1.31927711E-02    1.00000000E+00   1.00000000E+00 
D    1    1.000000
   6.26000000E-01    1.00000000E+00 

12    0
S    3    1.000000
   3.38650000E+01    2.54938000E-02 
   5.09479000E+00    1.90373000E-01 
   1.15879000E+00    8.52161000E-01 
S    1    1.000000
   3.25840000E-01    1.00000000E+00 
S    1    1.000000
   1.02741000E-01    1.00000000E+00 
S    1    1.000000
   3.60000000E-02    1.00000000E+00 
P    1    1.000000
   7.50000000E-01    1.00000000E+00 

[MO]
Sym=X
Ene=0.00032
Spin=Alpha
Occup=1
1    -0.000842187166
2    -0.00651991462
3    -0.0325239484
4    -0.111665448
5    -0.263783081
6    -0.0961512451
7    -0.353249387
8    0.000831677962
9    -0.000238426029
10    -1.30911371e-17
11    -0.00141288307
12    -0.000907081166
13    -5.03151499e-05
14    -1.52677352e-15
15    -0.000829116933
16    0.00027948013
17    -0.000571274175
18    4.24553763e-15
19    -0.000729814427
20    0.000370614722
21    -0.000437798887
22    -6.4509448e-14
23    1.10474158e-05
24    -2.35555305e-05
25    0.000133364629
26    6.4755161e-14
27    -0.000330610905
28    -2.55887428e-16
29    0.000176853783
30    -2.28516472e-16
31    -0.000100918741
32    -4.10132726e-05
33    -3.13907484e-05
34    -0.000158931124
35    -0.000168379276
36    -5.29968085e-05
37    -1.73463843e-05
38    9.81185188e-17
39    -0.000296663179
40    -0.00040790592
41    -0.000101756936
42    -0.000343599049
43    -4.4281424e-05
44    -0.000256455749
45    4.23301892e-17
46    -4.05360554e-05
47    -6.17944612e-06
48    -0.000212443705
49    -8.74302708e-05
50    3.58856172e-06
51    3.66689862e-05
52    -8.43500256e-16
53    -0.000433312631
54    -0.00335452046
55    -0.0167340799
56    -0.0574524833
57    -0.135722409
58    -0.0493107602
59    -0.181813748
60    -0.000238039692
61    0.000159575887
62    -2.08705074e-15
63    -0.000765568113
64    0.000245474855
65    -0.000123575643
66    -1.88017878e-16
67    -0.000635366078
68    0.000638393456
69    -0.000371743307
70    -6.04591591e-15
71    -0.000653662755
72    0.000614920449
73    -0.000480120966
74    -6.61561065e-14
75    0.000133672914
76    -2.25628313e-05
77    -2.43590298e-05
78    -5.06503541e-14
79    0.000119113616
80    -3.77578172e-16
81    8.92210581e-05
82    1.59427552e-16
83    -5.00623539e-05
84    1.35009416e-07
85    9.62505564e-07
86    5.2588834e-06
87    1.60677443e-05
88    5.55946059e-05
89    9.53785556e-05
90    5.63513901e-05
91    -7.86678103e-05
92    4.80862782e-05
93    -1.15767934e-15
94    -0.00030693723
95    -0.0002408333
96    0.000146424692
97    -1.46197858e-15
98    0.000433902334
99    0.000260942743
100    -0.000155857057
101    -3.61523237e-15
102    0.00117960987
103    0.000147584814
104    -8.7068387e-05
105    4.44768904e-15
106    0.00150299095
107    0.000233990057
108    -0.000198054921
109    2.2556101e-14
110    9.28350429e-05
111    2.32732003e-16
112    4.40571917e-05
113    -5.87315694e-16
114    -4.80125424e-05
115    -0.000561544929
116    -0.00434724393
117    -0.02168619
118    -0.0744539528
119    -0.175884605
120    -0.0639252612
121    -0.235610327
122    0.000363053213
123    -0.000257822024
124    -1.53902563e-15
125    -0.000981349316
126    -0.00035945083
127    0.000288067323
128    -4.20249418e-15
129    -0.00088486471
130    7.72363093e-05
131    -0.000280605732
132    2.43229394e-15
133    0.000231268627
134    -0.000199038401
135    -0.00120064394
136    -8.66814371e-14
137    -9.1461857e-05
138    6.53548044e-05
139    8.05021586e-05
140    2.6511553e-14
141    -0.000200313863
142    -3.90261016e-17
143    0.000140817878
144    1.31809232e-16
145    9.24526157e-05
146    1.22839733e-07
147    8.73210481e-07
148    4.81817292e-06
149    1.46421755e-05
150    5.10931024e-05
151    9.67812933e-05
152    6.18227295e-05
153    0.000101902999
154    6.43228868e-05
155    -1.80936777e-15
156    -0.000342417973
157    0.000302570848
158    0.000209798188
159    1.18231505e-15
160    0.000128227519
161    -0.000156567442
162    -7.97571689e-05
163    -8.90444002e-15
164    0.000620619431
165    -5.96449179e-05
166    5.74422709e-05
167    1.28050429e-14
168    0.00135977721
169    -0.000367050929
170    -5.2799248e-05
171    6.87075358e-15
172    -0.000135568385
173    2.45743618e-16
174    5.90145927e-05
175    5.37424099e-16
176    -5.1758794e-05
177    1.6864865e-07
178    1.10290238e-06
179    6.80492182e-06
180    1.81490282e-05
181    9.1572861e-05
182    0.000241992336
183    -2.41086004e-06
184    8.82100899e-06
185    2.89349802e-05
186    -2.67424227e-15
187    -0.000562406287
188    -0.000114050217
189    0.0003088041
190    1.22483836e-15
191    -5.54214057e-05
192    6.79638032e-05
193    9.65933809e-05
194    -1.75211255e-14
195    0.000636599836
196    0.000228820676
197    0.000355441881
198    5.16615411e-14
199    -0.000887575666
200    -0.000137364072
201    6.33391045e-05
202    4.7555718e-14
203    4.61818253e-05
204    1.92939526e-16
205    0.000103895303
206    -6.81533082e-17
207    -0.000197203613
208    2.99545319e-07
209    2.06948351e-06
210    1.17949537e-05
211    3.43105515e-05
212    0.00013950242
213    0.000317036098
214    4.62871525e-05
215    -4.73045602e-05
216    -1.03912486e-06
217    -1.94904725e-15
218    -0.000767329404
219    -0.000568925276
220    6.27962476e-05
221    4.61567418e-15
222    6.71842135e-05
223    -1.65988945e-05
224    -3.78314513e-05
225    -1.51562644e-14
226    0.000992525422
227    2.26696441e-05
228    -0.000261180432
229    5.20410509e-14
230    -3.42980642e-05
231    0.000304044414
232    -0.000366205051
233    1.37687735e-14
234    0.000267956365
235    -1.6746007e-16
236    0.000141830986
237    -2.92084416e-16
238    -1.85270357e-05
239    -0.000135439677
240    -0.0010484113
241    -0.00523055784
242    -0.0179552281
243    -0.042444199
244    -0.0155475433
245    -0.0566580263
246    0.000133764239
247    -1.65947295e-05
248    -1.53334069e-15
249    -0.000527714807
250    0.000175677151
251    -0.000156454993
252    6.94510403e-16
253    0.000434344805
254    -0.000334196747
255    0.000243622477
256    -1.20484806e-14
257    -0.00237756118
258    -7.62667389e-05
259    -0.000147041573
260    8.1229567e-14
261    -0.000149400306
262    3.73838312e-05
263    -0.000114556251
264    -6.06667114e-14
265    -0.000160049205
266    -8.85888784e-16
267    -1.66286669e-05
268    5.48923762e-16
269    1.88400978e-05
270    -7.99387653e-05
271    -0.000137870363
272    0.000325972132
273    6.55647751e-05
274    0.000121011273
275    -4.66151194e-05
276    7.35520134e-17
[5D]