[Molden Format]
[Atoms] (Angs)
  C      1    6     -0.00714236     -1.70213747     -0.00000000
  H      2    1     -2.06882847     -1.44022412      0.00000000
  H      3    1     -0.12337987     -2.77567521      0.00000000
  H      4    1      0.04651892      1.98813947     -0.00000000
  C      5    6     -1.21953563      0.40211669      0.00000000
  O      6    8     -2.25921553      1.03043814      0.00000000
  C      7    6      1.28797806      0.34644937     -0.00000000
  O      8    8      2.31273661      1.00537216     -0.00000000
  N      9    7      0.03446295      0.97739857     -0.00000000
  N     10    7     -1.17287765     -0.98229824      0.00000000
  C     11    6      1.20107039     -1.10433419     -0.00000000
  H     12    1      2.11220096     -1.67699125     -0.00000000
[GTO]
1    0
S    1    1.000000
   4.56324000E+03    1.96665000E-03 
S    1    1.000000
   6.82024000E+02    1.52306000E-02 
S    1    1.000000
   1.54973000E+02    7.61269000E-02 
S    1    1.000000
   4.44553000E+01    2.60801000E-01 
S    1    1.000000
   1.30290000E+01    6.16462000E-01 
S    1    1.000000
   1.82773000E+00    2.21006000E-01 
SP   3    1.000000
   2.09642000E+01    1.14660000E-01   4.02487000E-02 
   4.80331000E+00    9.19999000E-01   2.37594000E-01 
   1.45933000E+00   -3.03068000E-03   8.15854000E-01 
SP   1    1.000000
   4.83456000E-01    1.00000000E+00   1.00000000E+00 
SP   1    1.000000
   1.45585000E-01    1.00000000E+00   1.00000000E+00 
SP   1    1.000000
   4.38000000E-02    1.00000000E+00   1.00000000E+00 
SP   1    1.000000
   1.31927711E-02    1.00000000E+00   1.00000000E+00 
D    1    1.000000
   6.26000000E-01    1.00000000E+00 

2    0
S    3    1.000000
   3.38650000E+01    2.54938000E-02 
   5.09479000E+00    1.90373000E-01 
   1.15879000E+00    8.52161000E-01 
S    1    1.000000
   3.25840000E-01    1.00000000E+00 
S    1    1.000000
   1.02741000E-01    1.00000000E+00 
S    1    1.000000
   3.60000000E-02    1.00000000E+00 
P    1    1.000000
   7.50000000E-01    1.00000000E+00 

3    0
S    3    1.000000
   3.38650000E+01    2.54938000E-02 
   5.09479000E+00    1.90373000E-01 
   1.15879000E+00    8.52161000E-01 
S    1    1.000000
   3.25840000E-01    1.00000000E+00 
S    1    1.000000
   1.02741000E-01    1.00000000E+00 
S    1    1.000000
   3.60000000E-02    1.00000000E+00 
P    1    1.000000
   7.50000000E-01    1.00000000E+00 

4    0
S    3    1.000000
   3.38650000E+01    2.54938000E-02 
   5.09479000E+00    1.90373000E-01 
   1.15879000E+00    8.52161000E-01 
S    1    1.000000
   3.25840000E-01    1.00000000E+00 
S    1    1.000000
   1.02741000E-01    1.00000000E+00 
S    1    1.000000
   3.60000000E-02    1.00000000E+00 
P    1    1.000000
   7.50000000E-01    1.00000000E+00 

5    0
S    1    1.000000
   4.56324000E+03    1.96665000E-03 
S    1    1.000000
   6.82024000E+02    1.52306000E-02 
S    1    1.000000
   1.54973000E+02    7.61269000E-02 
S    1    1.000000
   4.44553000E+01    2.60801000E-01 
S    1    1.000000
   1.30290000E+01    6.16462000E-01 
S    1    1.000000
   1.82773000E+00    2.21006000E-01 
SP   3    1.000000
   2.09642000E+01    1.14660000E-01   4.02487000E-02 
   4.80331000E+00    9.19999000E-01   2.37594000E-01 
   1.45933000E+00   -3.03068000E-03   8.15854000E-01 
SP   1    1.000000
   4.83456000E-01    1.00000000E+00   1.00000000E+00 
SP   1    1.000000
   1.45585000E-01    1.00000000E+00   1.00000000E+00 
SP   1    1.000000
   4.38000000E-02    1.00000000E+00   1.00000000E+00 
SP   1    1.000000
   1.31927711E-02    1.00000000E+00   1.00000000E+00 
D    1    1.000000
   6.26000000E-01    1.00000000E+00 

6    0
S    1    1.000000
   8.58850000E+03    1.89515000E-03 
S    1    1.000000
   1.29723000E+03    1.43859000E-02 
S    1    1.000000
   2.99296000E+02    7.07320000E-02 
S    1    1.000000
   8.73771000E+01    2.40001000E-01 
S    1    1.000000
   2.56789000E+01    5.94797000E-01 
S    1    1.000000
   3.74004000E+00    2.80802000E-01 
SP   3    1.000000
   4.21175000E+01    1.13889000E-01   3.65114000E-02 
   9.62837000E+00    9.20811000E-01   2.37153000E-01 
   2.85332000E+00   -3.27447000E-03   8.19702000E-01 
SP   1    1.000000
   9.05661000E-01    1.00000000E+00   1.00000000E+00 
SP   1    1.000000
   2.55611000E-01    1.00000000E+00   1.00000000E+00 
SP   1    1.000000
   8.45000000E-02    1.00000000E+00   1.00000000E+00 
SP   1    1.000000
   2.54518072E-02    1.00000000E+00   1.00000000E+00 
D    1    1.000000
   1.29200000E+00    1.00000000E+00 

7    0
S    1    1.000000
   4.56324000E+03    1.96665000E-03 
S    1    1.000000
   6.82024000E+02    1.52306000E-02 
S    1    1.000000
   1.54973000E+02    7.61269000E-02 
S    1    1.000000
   4.44553000E+01    2.60801000E-01 
S    1    1.000000
   1.30290000E+01    6.16462000E-01 
S    1    1.000000
   1.82773000E+00    2.21006000E-01 
SP   3    1.000000
   2.09642000E+01    1.14660000E-01   4.02487000E-02 
   4.80331000E+00    9.19999000E-01   2.37594000E-01 
   1.45933000E+00   -3.03068000E-03   8.15854000E-01 
SP   1    1.000000
   4.83456000E-01    1.00000000E+00   1.00000000E+00 
SP   1    1.000000
   1.45585000E-01    1.00000000E+00   1.00000000E+00 
SP   1    1.000000
   4.38000000E-02    1.00000000E+00   1.00000000E+00 
SP   1    1.000000
   1.31927711E-02    1.00000000E+00   1.00000000E+00 
D    1    1.000000
   6.26000000E-01    1.00000000E+00 

8    0
S    1    1.000000
   8.58850000E+03    1.89515000E-03 
S    1    1.000000
   1.29723000E+03    1.43859000E-02 
S    1    1.000000
   2.99296000E+02    7.07320000E-02 
S    1    1.000000
   8.73771000E+01    2.40001000E-01 
S    1    1.000000
   2.56789000E+01    5.94797000E-01 
S    1    1.000000
   3.74004000E+00    2.80802000E-01 
SP   3    1.000000
   4.21175000E+01    1.13889000E-01   3.65114000E-02 
   9.62837000E+00    9.20811000E-01   2.37153000E-01 
   2.85332000E+00   -3.27447000E-03   8.19702000E-01 
SP   1    1.000000
   9.05661000E-01    1.00000000E+00   1.00000000E+00 
SP   1    1.000000
   2.55611000E-01    1.00000000E+00   1.00000000E+00 
SP   1    1.000000
   8.45000000E-02    1.00000000E+00   1.00000000E+00 
SP   1    1.000000
   2.54518072E-02    1.00000000E+00   1.00000000E+00 
D    1    1.000000
   1.29200000E+00    1.00000000E+00 

9    0
S    1    1.000000
   6.29348000E+03    1.96979000E-03 
S    1    1.000000
   9.49044000E+02    1.49613000E-02 
S    1    1.000000
   2.18776000E+02    7.35006000E-02 
S    1    1.000000
   6.36916000E+01    2.48937000E-01 
S    1    1.000000
   1.88282000E+01    6.02460000E-01 
S    1    1.000000
   2.72023000E+00    2.56202000E-01 
SP   3    1.000000
   3.06331000E+01    1.11906000E-01   3.83119000E-02 
   7.02614000E+00    9.21666000E-01   2.37403000E-01 
   2.11205000E+00   -2.56919000E-03   8.17592000E-01 
SP   1    1.000000
   6.84009000E-01    1.00000000E+00   1.00000000E+00 
SP   1    1.000000
   2.00878000E-01    1.00000000E+00   1.00000000E+00 
SP   1    1.000000
   6.39000000E-02    1.00000000E+00   1.00000000E+00 
SP   1    1.000000
   1.92469880E-02    1.00000000E+00   1.00000000E+00 
D    1    1.000000
   9.13000000E-01    1.00000000E+00 

10    0
S    1    1.000000
   6.29348000E+03    1.96979000E-03 
S    1    1.000000
   9.49044000E+02    1.49613000E-02 
S    1    1.000000
   2.18776000E+02    7.35006000E-02 
S    1    1.000000
   6.36916000E+01    2.48937000E-01 
S    1    1.000000
   1.88282000E+01    6.02460000E-01 
S    1    1.000000
   2.72023000E+00    2.56202000E-01 
SP   3    1.000000
   3.06331000E+01    1.11906000E-01   3.83119000E-02 
   7.02614000E+00    9.21666000E-01   2.37403000E-01 
   2.11205000E+00   -2.56919000E-03   8.17592000E-01 
SP   1    1.000000
   6.84009000E-01    1.00000000E+00   1.00000000E+00 
SP   1    1.000000
   2.00878000E-01    1.00000000E+00   1.00000000E+00 
SP   1    1.000000
   6.39000000E-02    1.00000000E+00   1.00000000E+00 
SP   1    1.000000
   1.92469880E-02    1.00000000E+00   1.00000000E+00 
D    1    1.000000
   9.13000000E-01    1.00000000E+00 

11    0
S    1    1.000000
   4.56324000E+03    1.96665000E-03 
S    1    1.000000
   6.82024000E+02    1.52306000E-02 
S    1    1.000000
   1.54973000E+02    7.61269000E-02 
S    1    1.000000
   4.44553000E+01    2.60801000E-01 
S    1    1.000000
   1.30290000E+01    6.16462000E-01 
S    1    1.000000
   1.82773000E+00    2.21006000E-01 
SP   3    1.000000
   2.09642000E+01    1.14660000E-01   4.02487000E-02 
   4.80331000E+00    9.19999000E-01   2.37594000E-01 
   1.45933000E+00   -3.03068000E-03   8.15854000E-01 
SP   1    1.000000
   4.83456000E-01    1.00000000E+00   1.00000000E+00 
SP   1    1.000000
   1.45585000E-01    1.00000000E+00   1.00000000E+00 
SP   1    1.000000
   4.38000000E-02    1.00000000E+00   1.00000000E+00 
SP   1    1.000000
   1.31927711E-02    1.00000000E+00   1.00000000E+00 
D    1    1.000000
   6.26000000E-01    1.00000000E+00 

12    0
S    3    1.000000
   3.38650000E+01    2.54938000E-02 
   5.09479000E+00    1.90373000E-01 
   1.15879000E+00    8.52161000E-01 
S    1    1.000000
   3.25840000E-01    1.00000000E+00 
S    1    1.000000
   1.02741000E-01    1.00000000E+00 
S    1    1.000000
   3.60000000E-02    1.00000000E+00 
P    1    1.000000
   7.50000000E-01    1.00000000E+00 

[MO]
Sym=X
Ene=0.001128
Spin=Alpha
Occup=1
1    -0.00031991485
2    -0.00247669147
3    -0.0123545507
4    -0.0424178995
5    -0.100195454
6    -0.036486535
7    -0.134200711
8    0.000324151349
9    -8.34918323e-05
10    -7.62971376e-16
11    -0.000643331105
12    -0.000464873512
13    -0.000107465012
14    9.31865669e-16
15    -0.000236609972
16    0.000196826278
17    -0.000281882255
18    -2.11772558e-15
19    0.00142911238
20    0.000203297622
21    0.000469370037
22    -2.87575651e-15
23    2.19455644e-05
24    -9.91124344e-05
25    0.000230133502
26    7.49342351e-14
27    -0.000199564292
28    -7.67784749e-16
29    6.92683359e-05
30    1.34085708e-15
31    -5.72653531e-05
32    -2.11599741e-05
33    1.59589756e-05
34    -0.000224450261
35    -0.000314807528
36    -1.8711095e-05
37    -1.13682135e-06
38    -1.41383267e-15
39    -0.000112798415
40    -0.000225375205
41    6.61672195e-06
42    -1.4211488e-05
43    -3.26290201e-05
44    -0.000114306578
45    -2.71409844e-16
46    -3.96539752e-05
47    -3.9486148e-05
48    -0.000190450953
49    0.000128467367
50    9.88557688e-06
51    4.17182827e-05
52    -8.77141802e-16
53    -7.49737718e-05
54    -0.000580446697
55    -0.00289534086
56    -0.00994133547
57    -0.0234758965
58    -0.00848960659
59    -0.0314820476
60    -2.49042521e-05
61    2.53032218e-05
62    -3.58118184e-15
63    -0.00021878541
64    -6.07725617e-06
65    -8.95066365e-06
66    -7.28001961e-15
67    -6.75401948e-05
68    0.000656154004
69    -0.000342181156
70    -6.70659695e-15
71    -0.000722357263
72    0.000283753663
73    5.74670746e-05
74    -1.54996381e-14
75    0.000350060369
76    0.000133899182
77    4.10177103e-05
78    -1.63243766e-14
79    1.85338533e-05
80    -3.26340548e-16
81    1.2366387e-05
82    4.91207852e-16
83    -3.92161323e-05
84    2.35216182e-08
85    1.51863517e-07
86    9.53325284e-07
87    2.49643512e-06
88    1.30754083e-05
89    3.19619432e-05
90    5.42991518e-07
91    -1.18320515e-05
92    7.19623217e-06
93    -2.32930099e-15
94    -9.73531918e-05
95    -6.39150832e-05
96    3.11290716e-05
97    -4.12113369e-15
98    0.00028265682
99    0.000144539288
100    -9.80602604e-05
101    -5.41694544e-15
102    0.00106564884
103    0.000263871712
104    -9.60080682e-05
105    -7.053914e-15
106    0.000666664725
107    3.71129768e-05
108    -0.000229552447
109    1.994038e-14
110    1.21390121e-05
111    4.99505518e-17
112    6.24003751e-06
113    -8.27095238e-16
114    -1.19646367e-05
115    -0.00105478396
116    -0.00816561732
117    -0.0407346662
118    -0.139849937
119    -0.330392156
120    -0.120175038
121    -0.442513549
122    0.000700849074
123    -0.000467617173
124    9.0097942e-16
125    -0.00162782156
126    -0.000749819852
127    0.000322755525
128    3.62350863e-16
129    -0.00146242767
130    0.000256952556
131    -0.000451054142
132    4.86003052e-15
133    0.00222420203
134    -0.000262302999
135    -0.00240458987
136    -2.96857365e-15
137    0.00022322181
138    0.000243029718
139    -1.38633738e-05
140    1.84851615e-14
141    -0.000333564492
142    -1.38820273e-16
143    0.000250156582
144    1.52493024e-15
145    9.1665766e-05
146    2.79705818e-07
147    2.02515147e-06
148    1.08475323e-05
149    3.39587393e-05
150    0.000108722686
151    0.000177440846
152    0.000145386266
153    0.000194167577
154    0.000127567715
155    3.72338574e-16
156    -0.000617922236
157    0.0005388486
158    0.0003635254
159    3.52989939e-15
160    0.000247572463
161    -0.000233734755
162    -0.000113434474
163    1.3699199e-15
164    0.000498905493
165    4.33696219e-05
166    0.000171746062
167    2.96548434e-15
168    0.00227083479
169    -0.000602480782
170    -6.46856759e-05
171    1.29170392e-14
172    -0.000247613471
173    -1.9233571e-16
174    0.000109459994
175    -8.44709311e-17
176    -0.000104608902
177    1.80763071e-07
178    1.17660296e-06
179    7.31105389e-06
180    1.93568972e-05
181    9.93759669e-05
182    0.000265320781
183    -4.07605986e-06
184    -3.5543743e-05
185    3.61737103e-05
186    -1.59981256e-15
187    -0.000604447798
188    -0.000624629607
189    0.000344932108
190    -3.89525881e-15
191    -7.93282395e-05
192    0.000172743222
193    0.0001643636
194    -4.14272763e-15
195    0.00113146207
196    0.000907213483
197    0.000182954629
198    1.37748787e-15
199    -0.000698487555
200    -0.000580358358
201    -3.44686087e-05
202    1.31828762e-14
203    0.000241221173
204    2.32648581e-16
205    0.000125563852
206    9.33890947e-16
207    -0.000222758134
208    1.62064184e-07
209    1.13350956e-06
210    6.31847985e-06
211    1.87063913e-05
212    7.16142523e-05
213    0.000141058677
214    2.30504771e-05
215    -1.08325007e-05
216    7.03029743e-06
217    -2.16986597e-15
218    -0.000302560353
219    -0.000244279136
220    7.57671608e-05
221    -2.28246285e-15
222    1.46623441e-05
223    1.15285304e-05
224    -6.38646923e-05
225    -8.46340817e-15
226    0.000210317872
227    -0.000348250928
228    -0.000189043959
229    1.16276185e-14
230    -0.000588510792
231    0.00011910803
232    -0.000391597971
233    -2.98322349e-14
234    0.000107885785
235    -9.51293933e-16
236    4.91908065e-05
237    1.33605704e-16
238    -3.17848782e-05
239    -0.000102057774
240    -0.000790022432
241    -0.00394133656
242    -0.0135299491
243    -0.0319774706
244    -0.011678336
245    -0.042704976
246    6.07336275e-05
247    -8.46145242e-05
248    5.76896955e-16
249    -0.000498604472
250    6.78434977e-06
251    -0.000422463969
252    2.46000983e-15
253    0.00024369953
254    -0.000139160587
255    0.000277227485
256    -2.68119844e-16
257    -0.00611086153
258    0.0002888703
259    -0.0012311811
260    1.3753806e-14
261    -0.00054728785
262    -5.84697028e-05
263    -0.000333679226
264    -5.05346174e-14
265    -8.85412422e-05
266    -1.82104903e-16
267    1.48106453e-05
268    6.80064139e-16
269    0.000218636615
270    -6.56859708e-05
271    -0.000137119732
272    0.000248345318
273    -0.000207163435
274    8.43344214e-05
275    -7.85845125e-05
276    1.03921636e-15
[5D]