[Molden Format]
[Atoms] (Angs)
  C      1    6     -0.00714236     -1.70213747     -0.00000000
  H      2    1     -2.06882847     -1.44022412      0.00000000
  H      3    1     -0.12337987     -2.77567521      0.00000000
  H      4    1      0.04651892      1.98813947     -0.00000000
  C      5    6     -1.21953563      0.40211669      0.00000000
  O      6    8     -2.25921553      1.03043814      0.00000000
  C      7    6      1.28797806      0.34644937     -0.00000000
  O      8    8      2.31273661      1.00537216     -0.00000000
  N      9    7      0.03446295      0.97739857     -0.00000000
  N     10    7     -1.17287765     -0.98229824      0.00000000
  C     11    6      1.20107039     -1.10433419     -0.00000000
  H     12    1      2.11220096     -1.67699125     -0.00000000
[GTO]
1    0
S    1    1.000000
   4.56324000E+03    1.96665000E-03 
S    1    1.000000
   6.82024000E+02    1.52306000E-02 
S    1    1.000000
   1.54973000E+02    7.61269000E-02 
S    1    1.000000
   4.44553000E+01    2.60801000E-01 
S    1    1.000000
   1.30290000E+01    6.16462000E-01 
S    1    1.000000
   1.82773000E+00    2.21006000E-01 
SP   3    1.000000
   2.09642000E+01    1.14660000E-01   4.02487000E-02 
   4.80331000E+00    9.19999000E-01   2.37594000E-01 
   1.45933000E+00   -3.03068000E-03   8.15854000E-01 
SP   1    1.000000
   4.83456000E-01    1.00000000E+00   1.00000000E+00 
SP   1    1.000000
   1.45585000E-01    1.00000000E+00   1.00000000E+00 
SP   1    1.000000
   4.38000000E-02    1.00000000E+00   1.00000000E+00 
SP   1    1.000000
   1.31927711E-02    1.00000000E+00   1.00000000E+00 
D    1    1.000000
   6.26000000E-01    1.00000000E+00 

2    0
S    3    1.000000
   3.38650000E+01    2.54938000E-02 
   5.09479000E+00    1.90373000E-01 
   1.15879000E+00    8.52161000E-01 
S    1    1.000000
   3.25840000E-01    1.00000000E+00 
S    1    1.000000
   1.02741000E-01    1.00000000E+00 
S    1    1.000000
   3.60000000E-02    1.00000000E+00 
P    1    1.000000
   7.50000000E-01    1.00000000E+00 

3    0
S    3    1.000000
   3.38650000E+01    2.54938000E-02 
   5.09479000E+00    1.90373000E-01 
   1.15879000E+00    8.52161000E-01 
S    1    1.000000
   3.25840000E-01    1.00000000E+00 
S    1    1.000000
   1.02741000E-01    1.00000000E+00 
S    1    1.000000
   3.60000000E-02    1.00000000E+00 
P    1    1.000000
   7.50000000E-01    1.00000000E+00 

4    0
S    3    1.000000
   3.38650000E+01    2.54938000E-02 
   5.09479000E+00    1.90373000E-01 
   1.15879000E+00    8.52161000E-01 
S    1    1.000000
   3.25840000E-01    1.00000000E+00 
S    1    1.000000
   1.02741000E-01    1.00000000E+00 
S    1    1.000000
   3.60000000E-02    1.00000000E+00 
P    1    1.000000
   7.50000000E-01    1.00000000E+00 

5    0
S    1    1.000000
   4.56324000E+03    1.96665000E-03 
S    1    1.000000
   6.82024000E+02    1.52306000E-02 
S    1    1.000000
   1.54973000E+02    7.61269000E-02 
S    1    1.000000
   4.44553000E+01    2.60801000E-01 
S    1    1.000000
   1.30290000E+01    6.16462000E-01 
S    1    1.000000
   1.82773000E+00    2.21006000E-01 
SP   3    1.000000
   2.09642000E+01    1.14660000E-01   4.02487000E-02 
   4.80331000E+00    9.19999000E-01   2.37594000E-01 
   1.45933000E+00   -3.03068000E-03   8.15854000E-01 
SP   1    1.000000
   4.83456000E-01    1.00000000E+00   1.00000000E+00 
SP   1    1.000000
   1.45585000E-01    1.00000000E+00   1.00000000E+00 
SP   1    1.000000
   4.38000000E-02    1.00000000E+00   1.00000000E+00 
SP   1    1.000000
   1.31927711E-02    1.00000000E+00   1.00000000E+00 
D    1    1.000000
   6.26000000E-01    1.00000000E+00 

6    0
S    1    1.000000
   8.58850000E+03    1.89515000E-03 
S    1    1.000000
   1.29723000E+03    1.43859000E-02 
S    1    1.000000
   2.99296000E+02    7.07320000E-02 
S    1    1.000000
   8.73771000E+01    2.40001000E-01 
S    1    1.000000
   2.56789000E+01    5.94797000E-01 
S    1    1.000000
   3.74004000E+00    2.80802000E-01 
SP   3    1.000000
   4.21175000E+01    1.13889000E-01   3.65114000E-02 
   9.62837000E+00    9.20811000E-01   2.37153000E-01 
   2.85332000E+00   -3.27447000E-03   8.19702000E-01 
SP   1    1.000000
   9.05661000E-01    1.00000000E+00   1.00000000E+00 
SP   1    1.000000
   2.55611000E-01    1.00000000E+00   1.00000000E+00 
SP   1    1.000000
   8.45000000E-02    1.00000000E+00   1.00000000E+00 
SP   1    1.000000
   2.54518072E-02    1.00000000E+00   1.00000000E+00 
D    1    1.000000
   1.29200000E+00    1.00000000E+00 

7    0
S    1    1.000000
   4.56324000E+03    1.96665000E-03 
S    1    1.000000
   6.82024000E+02    1.52306000E-02 
S    1    1.000000
   1.54973000E+02    7.61269000E-02 
S    1    1.000000
   4.44553000E+01    2.60801000E-01 
S    1    1.000000
   1.30290000E+01    6.16462000E-01 
S    1    1.000000
   1.82773000E+00    2.21006000E-01 
SP   3    1.000000
   2.09642000E+01    1.14660000E-01   4.02487000E-02 
   4.80331000E+00    9.19999000E-01   2.37594000E-01 
   1.45933000E+00   -3.03068000E-03   8.15854000E-01 
SP   1    1.000000
   4.83456000E-01    1.00000000E+00   1.00000000E+00 
SP   1    1.000000
   1.45585000E-01    1.00000000E+00   1.00000000E+00 
SP   1    1.000000
   4.38000000E-02    1.00000000E+00   1.00000000E+00 
SP   1    1.000000
   1.31927711E-02    1.00000000E+00   1.00000000E+00 
D    1    1.000000
   6.26000000E-01    1.00000000E+00 

8    0
S    1    1.000000
   8.58850000E+03    1.89515000E-03 
S    1    1.000000
   1.29723000E+03    1.43859000E-02 
S    1    1.000000
   2.99296000E+02    7.07320000E-02 
S    1    1.000000
   8.73771000E+01    2.40001000E-01 
S    1    1.000000
   2.56789000E+01    5.94797000E-01 
S    1    1.000000
   3.74004000E+00    2.80802000E-01 
SP   3    1.000000
   4.21175000E+01    1.13889000E-01   3.65114000E-02 
   9.62837000E+00    9.20811000E-01   2.37153000E-01 
   2.85332000E+00   -3.27447000E-03   8.19702000E-01 
SP   1    1.000000
   9.05661000E-01    1.00000000E+00   1.00000000E+00 
SP   1    1.000000
   2.55611000E-01    1.00000000E+00   1.00000000E+00 
SP   1    1.000000
   8.45000000E-02    1.00000000E+00   1.00000000E+00 
SP   1    1.000000
   2.54518072E-02    1.00000000E+00   1.00000000E+00 
D    1    1.000000
   1.29200000E+00    1.00000000E+00 

9    0
S    1    1.000000
   6.29348000E+03    1.96979000E-03 
S    1    1.000000
   9.49044000E+02    1.49613000E-02 
S    1    1.000000
   2.18776000E+02    7.35006000E-02 
S    1    1.000000
   6.36916000E+01    2.48937000E-01 
S    1    1.000000
   1.88282000E+01    6.02460000E-01 
S    1    1.000000
   2.72023000E+00    2.56202000E-01 
SP   3    1.000000
   3.06331000E+01    1.11906000E-01   3.83119000E-02 
   7.02614000E+00    9.21666000E-01   2.37403000E-01 
   2.11205000E+00   -2.56919000E-03   8.17592000E-01 
SP   1    1.000000
   6.84009000E-01    1.00000000E+00   1.00000000E+00 
SP   1    1.000000
   2.00878000E-01    1.00000000E+00   1.00000000E+00 
SP   1    1.000000
   6.39000000E-02    1.00000000E+00   1.00000000E+00 
SP   1    1.000000
   1.92469880E-02    1.00000000E+00   1.00000000E+00 
D    1    1.000000
   9.13000000E-01    1.00000000E+00 

10    0
S    1    1.000000
   6.29348000E+03    1.96979000E-03 
S    1    1.000000
   9.49044000E+02    1.49613000E-02 
S    1    1.000000
   2.18776000E+02    7.35006000E-02 
S    1    1.000000
   6.36916000E+01    2.48937000E-01 
S    1    1.000000
   1.88282000E+01    6.02460000E-01 
S    1    1.000000
   2.72023000E+00    2.56202000E-01 
SP   3    1.000000
   3.06331000E+01    1.11906000E-01   3.83119000E-02 
   7.02614000E+00    9.21666000E-01   2.37403000E-01 
   2.11205000E+00   -2.56919000E-03   8.17592000E-01 
SP   1    1.000000
   6.84009000E-01    1.00000000E+00   1.00000000E+00 
SP   1    1.000000
   2.00878000E-01    1.00000000E+00   1.00000000E+00 
SP   1    1.000000
   6.39000000E-02    1.00000000E+00   1.00000000E+00 
SP   1    1.000000
   1.92469880E-02    1.00000000E+00   1.00000000E+00 
D    1    1.000000
   9.13000000E-01    1.00000000E+00 

11    0
S    1    1.000000
   4.56324000E+03    1.96665000E-03 
S    1    1.000000
   6.82024000E+02    1.52306000E-02 
S    1    1.000000
   1.54973000E+02    7.61269000E-02 
S    1    1.000000
   4.44553000E+01    2.60801000E-01 
S    1    1.000000
   1.30290000E+01    6.16462000E-01 
S    1    1.000000
   1.82773000E+00    2.21006000E-01 
SP   3    1.000000
   2.09642000E+01    1.14660000E-01   4.02487000E-02 
   4.80331000E+00    9.19999000E-01   2.37594000E-01 
   1.45933000E+00   -3.03068000E-03   8.15854000E-01 
SP   1    1.000000
   4.83456000E-01    1.00000000E+00   1.00000000E+00 
SP   1    1.000000
   1.45585000E-01    1.00000000E+00   1.00000000E+00 
SP   1    1.000000
   4.38000000E-02    1.00000000E+00   1.00000000E+00 
SP   1    1.000000
   1.31927711E-02    1.00000000E+00   1.00000000E+00 
D    1    1.000000
   6.26000000E-01    1.00000000E+00 

12    0
S    3    1.000000
   3.38650000E+01    2.54938000E-02 
   5.09479000E+00    1.90373000E-01 
   1.15879000E+00    8.52161000E-01 
S    1    1.000000
   3.25840000E-01    1.00000000E+00 
S    1    1.000000
   1.02741000E-01    1.00000000E+00 
S    1    1.000000
   3.60000000E-02    1.00000000E+00 
P    1    1.000000
   7.50000000E-01    1.00000000E+00 

[MO]
Sym=X
Ene=0.000324
Spin=Alpha
Occup=1
1    0.000912325261
2    0.00706291979
3    0.0352326226
4    0.120965998
5    0.285750231
6    0.10422864
7    0.38271102
8    -0.000985706387
9    0.000221872629
10    -2.0971128e-15
11    0.00108426031
12    0.000555779746
13    -0.000231008724
14    1.28231699e-15
15    0.00176418936
16    -7.94264918e-05
17    0.00101435876
18    -1.01968678e-14
19    0.0023797624
20    -0.000511358307
21    0.00128666515
22    4.01360919e-14
23    -1.70626533e-05
24    4.62770675e-05
25    0.000150470943
26    -1.31715628e-14
27    0.000129627006
28    -1.21083093e-16
29    -0.000183541595
30    -1.82732296e-15
31    -4.00621917e-05
32    1.76728552e-05
33    1.88242806e-05
34    -6.1145311e-05
35    -0.000311629305
36    2.9405547e-05
37    1.57325109e-05
38    1.15349724e-15
39    0.000297135154
40    0.000329302201
41    0.000422542655
42    0.000469094867
43    3.00895315e-07
44    0.00021315611
45    -7.41110149e-16
46    -3.5280632e-06
47    -7.83132413e-05
48    0.000161693707
49    0.000116063262
50    3.87383892e-06
51    1.47961358e-05
52    2.44853056e-15
53    -1.70225994e-05
54    -0.000131772949
55    -0.000657411328
56    -0.0022568516
57    -0.00533439767
58    -0.00195596455
59    -0.00713332008
60    -8.67768554e-06
61    2.23999403e-05
62    7.17962415e-15
63    1.23920555e-05
64    1.18371507e-05
65    -6.89393741e-05
66    1.14169327e-14
67    0.000497122923
68    -0.000177768064
69    0.000147793372
70    1.36931029e-14
71    0.000406758778
72    -0.000116746155
73    0.000561248379
74    4.54696016e-14
75    0.000469626647
76    0.000216640609
77    -8.79617075e-06
78    2.83176872e-14
79    -1.3554426e-05
80    1.64192839e-15
81    1.54534936e-06
82    -1.97361362e-15
83    -4.78659134e-05
84    -5.31385912e-09
85    -2.73993623e-08
86    -2.25857347e-07
87    -4.1924904e-07
88    -4.49802688e-06
89    -1.30426607e-05
90    6.6138497e-06
91    -5.09130905e-06
92    3.02251505e-06
93    5.56330953e-15
94    2.9841188e-05
95    2.69879733e-06
96    -1.33583908e-05
97    8.00188242e-15
98    -0.000159871474
99    -8.44462864e-05
100    4.36427806e-05
101    1.59447636e-14
102    -0.000405350684
103    -2.17778455e-05
104    5.71768138e-05
105    5.23659423e-15
106    -0.000993776392
107    -0.000261620628
108    -5.97970798e-05
109    -3.95934512e-15
110    1.04148083e-06
111    -1.44154645e-15
112    1.47884423e-06
113    1.44801354e-15
114    -7.97052893e-06
115    -0.000205844382
116    -0.0015935139
117    -0.00794951329
118    -0.0272911794
119    -0.0644804543
120    -0.023433886
121    -0.0863250541
122    0.000146424144
123    -2.73817565e-05
124    -1.63491045e-15
125    -0.000522538452
126    -0.000154828472
127    0.000287980961
128    -5.47239124e-15
129    0.0002199961
130    -0.000389128547
131    -0.000671522837
132    -5.99306149e-15
133    0.00126741974
134    -0.000235066527
135    -0.000813618322
136    3.96370243e-14
137    0.000238891091
138    0.000251150469
139    -6.63494663e-05
140    -1.15534023e-14
141    -6.41269982e-05
142    4.72615588e-16
143    8.0990226e-05
144    -2.8058232e-15
145    0.000155870486
146    1.02363672e-08
147    3.75676029e-08
148    5.06694948e-07
149    6.08473794e-07
150    1.1800526e-05
151    4.86361475e-05
152    -5.68333989e-06
153    3.46947868e-05
154    1.50559562e-05
155    -2.24220339e-15
156    -0.000165820543
157    0.000122123818
158    7.53639937e-05
159    -5.42140256e-15
160    0.000246580593
161    -0.000111010058
162    -2.2978226e-05
163    -1.93165171e-15
164    0.00044060219
165    -5.88987172e-05
166    -4.38937598e-06
167    -2.01487567e-14
168    0.00140669718
169    -0.000294814542
170    -0.000109058033
171    -4.08891139e-15
172    -5.92564943e-05
173    2.54447987e-16
174    2.10817834e-05
175    1.76393691e-16
176    -1.33238883e-05
177    -1.45541802e-08
178    -1.38493153e-07
179    -4.6026595e-07
180    -2.30608881e-06
181    1.99435613e-06
182    3.59329496e-05
183    -1.68284593e-05
184    5.80343537e-06
185    6.87821219e-06
186    3.39491433e-15
187    -8.43581452e-05
188    -0.000171093516
189    6.12211127e-05
190    3.09170234e-15
191    -0.000138058836
192    9.26057802e-05
193    0.000165782106
194    1.26042477e-14
195    -4.51868144e-05
196    0.000457411424
197    -0.000283782521
198    -2.75160751e-14
199    0.000146951779
200    -0.000680116434
201    -1.64361642e-05
202    -4.09304234e-14
203    7.01310626e-05
204    -2.9499983e-16
205    2.46820688e-05
206    -2.21538421e-15
207    -4.70664209e-05
208    -1.82013053e-07
209    -1.27932346e-06
210    -7.13547684e-06
211    -2.13647299e-05
212    -8.09787372e-05
213    -0.000184456854
214    -4.69106691e-05
215    7.11879473e-05
216    -3.89748832e-05
217    3.53883735e-15
218    0.000500029465
219    0.000546458234
220    -0.000354420898
221    5.37733325e-16
222    -0.00023503035
223    -9.33865853e-05
224    -3.80995366e-05
225    1.76877307e-14
226    -0.00162501629
227    -0.000683641901
228    0.00015007951
229    -2.7001324e-14
230    -0.000920381938
231    -0.000281182029
232    -0.000145735452
233    -2.81223463e-14
234    -0.000253490446
235    1.29446997e-15
236    -9.85100444e-05
237    -4.46219937e-16
238    0.000134470253
239    -0.000596581134
240    -0.00461869479
241    -0.0230386621
242    -0.0791063878
243    -0.186834057
244    -0.0682626229
245    -0.250243028
246    -2.56346379e-05
247    -0.000201493133
248    -2.97050305e-15
249    -0.000897562879
250    -0.000187190069
251    -9.89156694e-05
252    -5.4565046e-15
253    -0.00162365284
254    0.000907524524
255    -0.000493805842
256    -3.04240447e-15
257    -0.0025911114
258    0.000561627403
259    -0.00132290453
260    -5.26644117e-14
261    -0.000438741036
262    -0.000210995498
263    -0.000276736024
264    -1.29067901e-15
265    9.17104838e-05
266    -2.12564862e-16
267    9.7250449e-05
268    -7.92802195e-16
269    0.000130474567
270    -0.000187108874
271    -0.000241940978
272    -0.000415722276
273    -0.000536051515
274    8.01157236e-05
275    -0.000108244355
276    -2.21959204e-15
[5D]