[Molden Format]
[Atoms] (Angs)
  C      1    6     -0.00754183     -1.75895763      0.00000000
  H      2    1     -2.09769850     -1.41880678     -0.00000000
  H      3    1     -0.13527422     -2.83956838     -0.00000000
  H      4    1      0.04053511      2.02026369      0.00000000
  C      5    6     -1.22066484      0.39918184     -0.00000000
  O      6    8     -2.25210141      1.05663720     -0.00000000
  C      7    6      1.24009552      0.27789184      0.00000000
  O      8    8      2.33767996      1.06122493      0.00000000
  N      9    7      0.03634586      1.00852936      0.00000000
  N     10    7     -1.18738304     -0.97903470     -0.00000000
  C     11    6      1.22288875     -1.12258096      0.00000000
  H     12    1      2.15640383     -1.68445878      0.00000000
[GTO]
1    0
S    1    1.000000
   4.56324000E+03    1.96665000E-03 
S    1    1.000000
   6.82024000E+02    1.52306000E-02 
S    1    1.000000
   1.54973000E+02    7.61269000E-02 
S    1    1.000000
   4.44553000E+01    2.60801000E-01 
S    1    1.000000
   1.30290000E+01    6.16462000E-01 
S    1    1.000000
   1.82773000E+00    2.21006000E-01 
SP   3    1.000000
   2.09642000E+01    1.14660000E-01   4.02487000E-02 
   4.80331000E+00    9.19999000E-01   2.37594000E-01 
   1.45933000E+00   -3.03068000E-03   8.15854000E-01 
SP   1    1.000000
   4.83456000E-01    1.00000000E+00   1.00000000E+00 
SP   1    1.000000
   1.45585000E-01    1.00000000E+00   1.00000000E+00 
SP   1    1.000000
   4.38000000E-02    1.00000000E+00   1.00000000E+00 
SP   1    1.000000
   1.31927711E-02    1.00000000E+00   1.00000000E+00 
D    1    1.000000
   6.26000000E-01    1.00000000E+00 

2    0
S    3    1.000000
   3.38650000E+01    2.54938000E-02 
   5.09479000E+00    1.90373000E-01 
   1.15879000E+00    8.52161000E-01 
S    1    1.000000
   3.25840000E-01    1.00000000E+00 
S    1    1.000000
   1.02741000E-01    1.00000000E+00 
S    1    1.000000
   3.60000000E-02    1.00000000E+00 
P    1    1.000000
   7.50000000E-01    1.00000000E+00 

3    0
S    3    1.000000
   3.38650000E+01    2.54938000E-02 
   5.09479000E+00    1.90373000E-01 
   1.15879000E+00    8.52161000E-01 
S    1    1.000000
   3.25840000E-01    1.00000000E+00 
S    1    1.000000
   1.02741000E-01    1.00000000E+00 
S    1    1.000000
   3.60000000E-02    1.00000000E+00 
P    1    1.000000
   7.50000000E-01    1.00000000E+00 

4    0
S    3    1.000000
   3.38650000E+01    2.54938000E-02 
   5.09479000E+00    1.90373000E-01 
   1.15879000E+00    8.52161000E-01 
S    1    1.000000
   3.25840000E-01    1.00000000E+00 
S    1    1.000000
   1.02741000E-01    1.00000000E+00 
S    1    1.000000
   3.60000000E-02    1.00000000E+00 
P    1    1.000000
   7.50000000E-01    1.00000000E+00 

5    0
S    1    1.000000
   4.56324000E+03    1.96665000E-03 
S    1    1.000000
   6.82024000E+02    1.52306000E-02 
S    1    1.000000
   1.54973000E+02    7.61269000E-02 
S    1    1.000000
   4.44553000E+01    2.60801000E-01 
S    1    1.000000
   1.30290000E+01    6.16462000E-01 
S    1    1.000000
   1.82773000E+00    2.21006000E-01 
SP   3    1.000000
   2.09642000E+01    1.14660000E-01   4.02487000E-02 
   4.80331000E+00    9.19999000E-01   2.37594000E-01 
   1.45933000E+00   -3.03068000E-03   8.15854000E-01 
SP   1    1.000000
   4.83456000E-01    1.00000000E+00   1.00000000E+00 
SP   1    1.000000
   1.45585000E-01    1.00000000E+00   1.00000000E+00 
SP   1    1.000000
   4.38000000E-02    1.00000000E+00   1.00000000E+00 
SP   1    1.000000
   1.31927711E-02    1.00000000E+00   1.00000000E+00 
D    1    1.000000
   6.26000000E-01    1.00000000E+00 

6    0
S    1    1.000000
   8.58850000E+03    1.89515000E-03 
S    1    1.000000
   1.29723000E+03    1.43859000E-02 
S    1    1.000000
   2.99296000E+02    7.07320000E-02 
S    1    1.000000
   8.73771000E+01    2.40001000E-01 
S    1    1.000000
   2.56789000E+01    5.94797000E-01 
S    1    1.000000
   3.74004000E+00    2.80802000E-01 
SP   3    1.000000
   4.21175000E+01    1.13889000E-01   3.65114000E-02 
   9.62837000E+00    9.20811000E-01   2.37153000E-01 
   2.85332000E+00   -3.27447000E-03   8.19702000E-01 
SP   1    1.000000
   9.05661000E-01    1.00000000E+00   1.00000000E+00 
SP   1    1.000000
   2.55611000E-01    1.00000000E+00   1.00000000E+00 
SP   1    1.000000
   8.45000000E-02    1.00000000E+00   1.00000000E+00 
SP   1    1.000000
   2.54518072E-02    1.00000000E+00   1.00000000E+00 
D    1    1.000000
   1.29200000E+00    1.00000000E+00 

7    0
S    1    1.000000
   4.56324000E+03    1.96665000E-03 
S    1    1.000000
   6.82024000E+02    1.52306000E-02 
S    1    1.000000
   1.54973000E+02    7.61269000E-02 
S    1    1.000000
   4.44553000E+01    2.60801000E-01 
S    1    1.000000
   1.30290000E+01    6.16462000E-01 
S    1    1.000000
   1.82773000E+00    2.21006000E-01 
SP   3    1.000000
   2.09642000E+01    1.14660000E-01   4.02487000E-02 
   4.80331000E+00    9.19999000E-01   2.37594000E-01 
   1.45933000E+00   -3.03068000E-03   8.15854000E-01 
SP   1    1.000000
   4.83456000E-01    1.00000000E+00   1.00000000E+00 
SP   1    1.000000
   1.45585000E-01    1.00000000E+00   1.00000000E+00 
SP   1    1.000000
   4.38000000E-02    1.00000000E+00   1.00000000E+00 
SP   1    1.000000
   1.31927711E-02    1.00000000E+00   1.00000000E+00 
D    1    1.000000
   6.26000000E-01    1.00000000E+00 

8    0
S    1    1.000000
   8.58850000E+03    1.89515000E-03 
S    1    1.000000
   1.29723000E+03    1.43859000E-02 
S    1    1.000000
   2.99296000E+02    7.07320000E-02 
S    1    1.000000
   8.73771000E+01    2.40001000E-01 
S    1    1.000000
   2.56789000E+01    5.94797000E-01 
S    1    1.000000
   3.74004000E+00    2.80802000E-01 
SP   3    1.000000
   4.21175000E+01    1.13889000E-01   3.65114000E-02 
   9.62837000E+00    9.20811000E-01   2.37153000E-01 
   2.85332000E+00   -3.27447000E-03   8.19702000E-01 
SP   1    1.000000
   9.05661000E-01    1.00000000E+00   1.00000000E+00 
SP   1    1.000000
   2.55611000E-01    1.00000000E+00   1.00000000E+00 
SP   1    1.000000
   8.45000000E-02    1.00000000E+00   1.00000000E+00 
SP   1    1.000000
   2.54518072E-02    1.00000000E+00   1.00000000E+00 
D    1    1.000000
   1.29200000E+00    1.00000000E+00 

9    0
S    1    1.000000
   6.29348000E+03    1.96979000E-03 
S    1    1.000000
   9.49044000E+02    1.49613000E-02 
S    1    1.000000
   2.18776000E+02    7.35006000E-02 
S    1    1.000000
   6.36916000E+01    2.48937000E-01 
S    1    1.000000
   1.88282000E+01    6.02460000E-01 
S    1    1.000000
   2.72023000E+00    2.56202000E-01 
SP   3    1.000000
   3.06331000E+01    1.11906000E-01   3.83119000E-02 
   7.02614000E+00    9.21666000E-01   2.37403000E-01 
   2.11205000E+00   -2.56919000E-03   8.17592000E-01 
SP   1    1.000000
   6.84009000E-01    1.00000000E+00   1.00000000E+00 
SP   1    1.000000
   2.00878000E-01    1.00000000E+00   1.00000000E+00 
SP   1    1.000000
   6.39000000E-02    1.00000000E+00   1.00000000E+00 
SP   1    1.000000
   1.92469880E-02    1.00000000E+00   1.00000000E+00 
D    1    1.000000
   9.13000000E-01    1.00000000E+00 

10    0
S    1    1.000000
   6.29348000E+03    1.96979000E-03 
S    1    1.000000
   9.49044000E+02    1.49613000E-02 
S    1    1.000000
   2.18776000E+02    7.35006000E-02 
S    1    1.000000
   6.36916000E+01    2.48937000E-01 
S    1    1.000000
   1.88282000E+01    6.02460000E-01 
S    1    1.000000
   2.72023000E+00    2.56202000E-01 
SP   3    1.000000
   3.06331000E+01    1.11906000E-01   3.83119000E-02 
   7.02614000E+00    9.21666000E-01   2.37403000E-01 
   2.11205000E+00   -2.56919000E-03   8.17592000E-01 
SP   1    1.000000
   6.84009000E-01    1.00000000E+00   1.00000000E+00 
SP   1    1.000000
   2.00878000E-01    1.00000000E+00   1.00000000E+00 
SP   1    1.000000
   6.39000000E-02    1.00000000E+00   1.00000000E+00 
SP   1    1.000000
   1.92469880E-02    1.00000000E+00   1.00000000E+00 
D    1    1.000000
   9.13000000E-01    1.00000000E+00 

11    0
S    1    1.000000
   4.56324000E+03    1.96665000E-03 
S    1    1.000000
   6.82024000E+02    1.52306000E-02 
S    1    1.000000
   1.54973000E+02    7.61269000E-02 
S    1    1.000000
   4.44553000E+01    2.60801000E-01 
S    1    1.000000
   1.30290000E+01    6.16462000E-01 
S    1    1.000000
   1.82773000E+00    2.21006000E-01 
SP   3    1.000000
   2.09642000E+01    1.14660000E-01   4.02487000E-02 
   4.80331000E+00    9.19999000E-01   2.37594000E-01 
   1.45933000E+00   -3.03068000E-03   8.15854000E-01 
SP   1    1.000000
   4.83456000E-01    1.00000000E+00   1.00000000E+00 
SP   1    1.000000
   1.45585000E-01    1.00000000E+00   1.00000000E+00 
SP   1    1.000000
   4.38000000E-02    1.00000000E+00   1.00000000E+00 
SP   1    1.000000
   1.31927711E-02    1.00000000E+00   1.00000000E+00 
D    1    1.000000
   6.26000000E-01    1.00000000E+00 

12    0
S    3    1.000000
   3.38650000E+01    2.54938000E-02 
   5.09479000E+00    1.90373000E-01 
   1.15879000E+00    8.52161000E-01 
S    1    1.000000
   3.25840000E-01    1.00000000E+00 
S    1    1.000000
   1.02741000E-01    1.00000000E+00 
S    1    1.000000
   3.60000000E-02    1.00000000E+00 
P    1    1.000000
   7.50000000E-01    1.00000000E+00 

[MO]
Sym=X
Ene=0.002774
Spin=Alpha
Occup=1
    -1.81330874e-09
    1.46424257e-08
    -1.3575524e-07
    3.65469945e-07
    -5.51691575e-06
    -2.19777696e-05
    1.26595154e-05
    -6.8729976e-07
    -3.15903511e-06
    -1.67211297e-15
    5.40887996e-05
    1.29348149e-05
    1.93459592e-05
    -3.75450317e-15
    -0.000432435345
    -4.27607066e-05
    -0.000241896927
    -3.34930637e-15
    0.00115459907
    0.000361837327
    -0.000574593619
    9.04756754e-15
    0.000457764554
    0.000224712234
    9.31998928e-05
    -5.14200759e-15
    1.69027711e-05
    -4.70045099e-17
    1.92898838e-06
    1.09995573e-16
    -8.40018983e-06
    3.32515811e-07
    3.09110199e-05
    -2.64397782e-05
    0.000103710013
    6.04697633e-07
    2.84121644e-06
    -6.1042973e-16
    -2.51478645e-06
    -3.07396605e-06
    -0.000188743682
    -0.000501317557
    4.55081501e-06
    -3.06127298e-06
    -1.13469388e-15
    1.16569179e-06
    8.5372633e-05
    -8.66789306e-05
    0.000112833434
    4.75125278e-06
    -1.90253383e-05
    1.53642107e-15
    -6.30628194e-10
    -2.47212332e-10
    -3.5358764e-08
    9.51545085e-09
    -1.09186784e-06
    -4.80823297e-06
    2.03994438e-06
    1.27846092e-06
    6.03666728e-07
    1.59994633e-15
    1.6698124e-05
    -5.21928941e-06
    -7.42534124e-07
    1.43814047e-15
    -0.000202773118
    -0.000322915332
    3.03709026e-05
    1.58543436e-15
    -0.00130261367
    -0.00105834794
    -4.83751288e-05
    2.64613223e-14
    -0.00087232738
    -0.000236325418
    -0.000400216927
    2.35431638e-14
    -4.65824004e-07
    1.27841953e-15
    4.40527662e-06
    4.59660709e-17
    2.96934458e-06
    -1.23968224e-07
    -9.40519477e-07
    -4.62974443e-06
    -1.56872707e-05
    -3.94437403e-05
    -2.05965023e-05
    -5.45642573e-05
    -2.13921071e-06
    -1.64505558e-07
    1.05871275e-15
    6.00289746e-06
    6.42725644e-06
    -4.62681528e-07
    1.1328026e-15
    -5.24693861e-05
    -3.29133109e-05
    2.69423904e-05
    4.10936152e-15
    -0.000444978093
    -6.28287533e-05
    8.17443811e-05
    -2.018227e-15
    -0.00178810111
    -0.000254386187
    5.93164511e-05
    -6.47482004e-15
    1.36462877e-06
    -2.46221124e-16
    1.34291952e-06
    4.25326109e-16
    1.24546442e-06
    -2.27562898e-08
    3.03999113e-08
    -1.39297339e-06
    1.08365013e-06
    -4.71809985e-05
    -0.000195639091
    8.34435267e-05
    -3.02629672e-05
    -1.9507262e-05
    9.49326861e-16
    0.000387740203
    0.000473902008
    0.000362678745
    2.67641056e-15
    -0.000569986147
    -0.00014716589
    7.54406287e-05
    2.12605455e-15
    -0.000144748602
    -0.00310220506
    -0.00158337249
    1.93472946e-14
    0.000237023784
    -0.000348171903
    0.000750386295
    -3.60360136e-14
    0.000301610698
    1.46551872e-15
    -8.33545259e-05
    3.42903493e-16
    0.000123124449
    0.0010432874
    0.00793635875
    0.0389137471
    0.132427625
    0.3277354
    0.15621338
    0.470786264
    -0.00145037397
    -0.00106157725
    9.8509981e-16
    0.00573328763
    0.000665186879
    0.000485881742
    2.39715711e-15
    -0.00108619133
    -0.000167174212
    -0.000132459026
    2.56097676e-15
    0.00283564943
    -0.000254423297
    -0.000195382173
    1.91674375e-15
    0.00543578231
    -0.00103714194
    -0.000413150732
    3.52926332e-15
    -0.000493207196
    -3.43572221e-19
    -7.95426396e-05
    -1.8758681e-16
    -0.000152585014
    -1.28454024e-09
    2.71260301e-08
    -1.29922778e-07
    5.94310849e-07
    -7.06245484e-06
    -2.80879523e-05
    1.94909988e-05
    -2.30222195e-05
    6.56118753e-06
    2.34357259e-15
    2.57571085e-05
    8.36988815e-05
    -3.46861389e-05
    1.0482167e-15
    0.000138597588
    -0.000184862233
    -0.000160426358
    9.41883329e-15
    5.33957541e-05
    -0.000387947454
    0.0001747599
    -1.57606658e-14
    -0.00180183499
    -0.00232394396
    5.98219833e-06
    4.901719e-15
    -2.69321763e-05
    3.1431628e-17
    -6.27705053e-06
    -5.62311089e-17
    3.30499114e-05
    -3.81710664e-10
    6.44964601e-09
    -3.58745707e-08
    1.43620364e-07
    -1.75186098e-06
    -6.72097011e-06
    4.36443259e-06
    -3.67839094e-07
    -1.65327486e-07
    -9.62265863e-16
    9.23242692e-06
    2.7257605e-06
    1.46120292e-06
    -1.58589845e-15
    9.48434806e-05
    0.000117458113
    7.96185867e-06
    -6.72532987e-16
    0.000730094806
    0.000257742755
    5.02881855e-07
    -7.91138094e-15
    -4.08720601e-05
    0.000284967964
    -0.000193071017
    -2.30204351e-14
    -3.5055293e-06
    6.35382585e-16
    1.28439545e-06
    -1.19088982e-16
    -2.22439742e-06
    5.26965335e-10
    2.28440449e-08
    -1.92248583e-08
    4.54195646e-07
    -3.61421426e-06
    -2.068555e-05
    1.22660473e-05
    -8.98152338e-06
    -2.18784853e-05
    -8.49150449e-16
    2.66361023e-05
    2.23141667e-05
    0.000134597264
    -1.9782739e-15
    0.000409980186
    -0.000255693534
    5.17019157e-05
    -7.58446667e-18
    -0.00237305262
    0.00151682023
    0.000125035924
    -1.60840101e-14
    0.000391048298
    0.000228839346
    -6.13787827e-06
    3.09090072e-14
    5.21833031e-05
    1.27128278e-15
    -3.83347097e-06
    9.66493372e-16
    -6.65601862e-05
    4.43579978e-06
    0.000103650849
    -4.01028567e-05
    -0.00087048934
    -2.65572915e-05
    1.51175381e-05
    -6.54431359e-16
Sym=X
Ene=0.925559
Spin=Alpha
Occup=1
    -8.63316632e-10
    2.97999076e-09
    -5.58417668e-08
    8.85095483e-08
    -1.94617655e-06
    -7.60030043e-06
    4.03029767e-06
    1.63404887e-06
    -1.08917076e-06
    1.25682454e-15
    2.05148624e-05
    -1.5398582e-05
    7.02299696e-06
    5.60230843e-15
    -0.000155124238
    -4.45251606e-05
    -0.000159607029
    2.29900349e-15
    -0.00295000223
    -4.9468434e-05
    -0.00121016056
    8.27609663e-15
    -0.00028121201
    -0.000207951594
    0.000174224043
    -9.89117732e-15
    -6.52684745e-06
    2.52890028e-16
    1.83907709e-06
    -1.17678824e-16
    -5.25536568e-06
    7.02739973e-06
    -1.92923033e-05
    -1.54016492e-05
    7.74251369e-05
    2.29962262e-06
    -9.60833773e-06
    2.83099601e-16
    1.58951609e-06
    -2.32379444e-05
    -0.00010754064
    -0.000732819822
    -6.36410291e-07
    -3.96354566e-06
    1.32352202e-15
    5.69513933e-06
    1.60961588e-05
    -9.14562621e-05
    0.000113035705
    7.59189404e-06
    -3.50792656e-06
    -7.19244269e-16
    -1.0253194e-08
    -1.15872802e-07
    -3.80052256e-07
    -2.88655222e-06
    -1.12299987e-05
    -0.00013360959
    -4.78392388e-06
    -2.75414031e-05
    1.85861965e-05
    -7.02654612e-16
    0.000457149969
    -0.000464178879
    0.000293015014
    -2.52020847e-15
    -0.000929965556
    0.000491986461
    -0.000310761539
    -1.12576605e-16
    -0.00213235052
    0.00272771866
    -0.00184003213
    -9.11499105e-15
    0.00137963571
    9.97310139e-05
    0.000240539759
    1.99462518e-14
    -0.000258265332
    -1.09365273e-15
    -8.14506286e-05
    -2.84771282e-17
    0.000118892894
    0.00104387859
    0.00794088772
    0.0389367071
    0.132512012
    0.327973772
    0.155475246
    0.471328878
    0.00163728363
    -0.00100721146
    -1.30238962e-15
    0.00490086374
    -0.000774964204
    0.000479723446
    -7.37331911e-16
    -0.000583620431
    0.000431593721
    -0.00026405843
    -5.6454198e-15
    0.0032824859
    0.00022575528
    -0.000156690131
    3.72676016e-15
    0.00756099982
    0.00139793722
    -0.000709860842
    -1.90051246e-15
    0.000103422955
    2.33495849e-17
    -8.39291599e-05
    -2.84864244e-16
    -4.5221912e-05
    -8.28311167e-10
    1.00453271e-09
    -4.94366776e-08
    4.39094456e-08
    -1.58648572e-06
    -6.40343858e-06
    3.07684548e-06
    2.98654145e-06
    4.07506538e-07
    -2.86587932e-16
    1.77573747e-05
    -1.85729385e-05
    3.98183508e-06
    -1.03461072e-15
    -6.08512784e-05
    0.000270699522
    0.000207097831
    2.82422566e-15
    -0.00261398425
    0.0012386782
    0.000612056554
    6.12529355e-15
    -0.000524608852
    0.000163376013
    -0.000255460476
    -3.3732586e-14
    2.97199682e-07
    -1.06075784e-15
    1.48383423e-06
    -1.69500989e-16
    6.71029834e-06
    1.55782067e-09
    1.72534675e-08
    4.57681671e-08
    3.04136224e-07
    -5.65545926e-07
    -4.23652083e-06
    3.68341367e-06
    2.14619015e-06
    4.12831284e-07
    -5.93326656e-16
    1.20429419e-05
    -7.53264153e-06
    -2.45792651e-06
    -8.75825391e-16
    -7.95884477e-05
    5.54263186e-05
    2.8800969e-05
    -5.1079401e-16
    -0.000443349843
    4.84026332e-05
    6.96430723e-05
    -3.73496764e-15
    -0.00234334416
    0.000396555701
    8.45040777e-05
    7.11862098e-15
    -8.32491708e-07
    2.96134442e-16
    7.42338281e-07
    1.39960577e-16
    -1.53043587e-08
    -1.04654467e-09
    2.92247215e-08
    -1.21120801e-07
    6.28836144e-07
    -7.11918217e-06
    -2.92430826e-05
    2.02570066e-05
    1.80719872e-05
    4.55720922e-07
    -1.05200705e-15
    4.02293917e-05
    -5.99772483e-05
    -7.13015404e-06
    -1.3991218e-15
    1.0981596e-05
    1.67274993e-05
    -4.26378693e-05
    -4.29144302e-15
    0.00031692617
    -6.49799395e-05
    0.000161676626
    1.73411212e-15
    -0.00139048245
    0.00230577284
    -7.9766875e-05
    6.55117133e-15
    1.03234679e-05
    -4.40484521e-16
    -4.28957503e-06
    -2.35425894e-16
    3.15525155e-05
    -1.2883474e-09
    2.91443663e-08
    -1.34429547e-07
    6.33752773e-07
    -7.50076055e-06
    -3.06829572e-05
    2.09093012e-05
    8.78775247e-06
    -1.46527721e-05
    2.26382609e-16
    4.55563556e-05
    -2.41463471e-05
    5.22670848e-05
    2.60557979e-15
    -2.09952375e-06
    -6.93675722e-06
    -1.54962569e-05
    2.40581259e-16
    8.68731955e-05
    -7.49813158e-05
    -7.05801659e-06
    7.71085138e-15
    -0.00197995737
    0.000339211535
    -0.000771355125
    -6.762569e-15
    -2.20750234e-05
    -7.17230133e-16
    -5.09632376e-06
    -7.64718443e-17
    -2.36941596e-05
    4.59460126e-11
    1.88666607e-10
    2.18135607e-09
    2.79070797e-10
    -1.41558039e-08
    -6.22638868e-07
    1.38942967e-07
    1.29278713e-06
    -1.00635797e-06
    1.39466659e-15
    -4.58057603e-06
    -1.15046352e-05
    7.88166465e-06
    3.17932653e-15
    0.000315969941
    -0.000193178857
    0.000106017903
    3.2100208e-15
    0.00374293228
    -0.000881117523
    0.000500930348
    -2.71285711e-15
    -1.85491232e-05
    -0.000113123862
    -0.000226928235
    3.44655728e-14
    4.52482796e-06
    -1.13228411e-15
    1.40092107e-07
    -8.29976328e-16
    -2.65895626e-06
    -2.31703225e-07
    3.18342151e-05
    7.95787994e-05
    0.000124098396
    -4.72718582e-06
    2.9213314e-06
    8.9349957e-16
Sym=X
Ene=0.919771
Spin=Alpha
Occup=1
    -1.81340994e-09
    1.46427751e-08
    -1.35761786e-07
    3.65480321e-07
    -5.51714389e-06
    -2.19786606e-05
    1.26599878e-05
    -6.87108246e-07
    -3.15916278e-06
    -1.67196567e-15
    5.40912045e-05
    1.29330102e-05
    1.93467825e-05
    -3.75384657e-15
    -0.000432453529
    -4.27659255e-05
    -0.000241915635
    -3.34903694e-15
    0.00115425332
    0.000361831532
    -0.00057473546
    9.0485376e-15
    0.000457731598
    0.000224687862
    9.32203134e-05
    -5.14316692e-15
    1.69020062e-05
    -4.69748702e-17
    1.92920394e-06
    1.09981781e-16
    -8.40080585e-06
    3.33339461e-07
    3.0908759e-05
    -2.64415835e-05
    0.000103719088
    6.04967165e-07
    2.84009031e-06
    -6.10396554e-16
    -2.51460016e-06
    -3.07668968e-06
    -0.000188756288
    -0.000501403451
    4.55074046e-06
    -3.06173755e-06
    -1.13453877e-15
    1.1663593e-06
    8.53745201e-05
    -8.66896503e-05
    0.000112846683
    4.75214262e-06
    -1.90257496e-05
    1.53633678e-15
    -6.31829926e-10
    -2.60793233e-10
    -3.54033084e-08
    9.17713186e-09
    -1.09318406e-06
    -4.82389275e-06
    2.03938369e-06
    1.27523293e-06
    6.05845132e-07
    1.59986399e-15
    1.67517045e-05
    -5.27369365e-06
    -7.08191233e-07
    1.4378451e-15
    -0.000202882117
    -0.000322857671
    3.03344799e-05
    1.58542117e-15
    -0.0013028636
    -0.00105802824
    -4.85907906e-05
    2.64602542e-14
    -0.000872165685
    -0.00023631373
    -0.000400188737
    2.35455018e-14
    -4.96094059e-07
    1.27829136e-15
    4.39573021e-06
    4.59627336e-17
    2.98327947e-06
    -1.62018105e-09
    -9.80581066e-09
    -6.61582482e-08
    -1.56168242e-07
    -1.00349498e-06
    -2.37398849e-06
    6.77957879e-07
    -1.9473125e-06
    -2.82556023e-07
    1.05856011e-15
    6.57730442e-06
    6.33642661e-06
    -4.06455428e-07
    1.13271619e-15
    -5.25377898e-05
    -3.28627261e-05
    2.69114416e-05
    4.10869988e-15
    -0.000444593371
    -6.2802294e-05
    8.17260167e-05
    -2.01779022e-15
    -0.00178721493
    -0.000254222343
    5.92332521e-05
    -6.47504284e-15
    1.37675049e-06
    -2.46218389e-16
    1.33308259e-06
    4.25292724e-16
    1.24016418e-06
    -2.2756387e-08
    3.04000292e-08
    -1.39297919e-06
    1.08365529e-06
    -4.71811848e-05
    -0.000195639843
    8.34438879e-05
    -3.02626174e-05
    -1.95072144e-05
    9.49293278e-16
    0.000387742287
    0.000473899835
    0.000362679214
    2.67628931e-15
    -0.000569993283
    -0.000147134163
    7.54649022e-05
    2.12638558e-15
    -0.000145054976
    -0.0031020599
    -0.00158330077
    1.93480126e-14
    0.000236962299
    -0.000348152757
    0.000750356359
    -3.60399674e-14
    0.000301610735
    1.46539441e-15
    -8.33543525e-05
    3.42883629e-16
    0.000123125236
    0.0010432874
    0.0079363588
    0.0389137474
    0.132427626
    0.327735402
    0.156213381
    0.470786268
    -0.00145037373
    -0.00106157721
    9.85030276e-16
    0.00573328908
    0.000665186
    0.000485881457
    2.39705448e-15
    -0.00108620066
    -0.000167167717
    -0.000132455652
    2.56091691e-15
    0.00283559748
    -0.000254417626
    -0.000195374012
    1.916306e-15
    0.0054355077
    -0.00103709547
    -0.000413140831
    3.53009768e-15
    -0.000493207297
    -3.08863714e-19
    -7.95425531e-05
    -1.87570407e-16
    -0.000152585017
    -1.28466291e-09
    2.71294556e-08
    -1.29936975e-07
    5.94384556e-07
    -7.06328929e-06
    -2.809138e-05
    1.94933732e-05
    -2.30201015e-05
    6.56124098e-06
    2.3434493e-15
    2.57618238e-05
    8.36918524e-05
    -3.46869748e-05
    1.04805272e-15
    0.000138598876
    -0.000184860274
    -0.000160431356
    9.41833038e-15
    5.34328999e-05
    -0.000387955072
    0.00017477885
    -1.57604626e-14
    -0.00180199798
    -0.00232367373
    5.97284927e-06
    4.90248687e-15
    -2.69309665e-05
    3.13800011e-17
    -6.27755333e-06
    -5.62587024e-17
    3.30536097e-05
    -3.81861667e-10
    6.45306192e-09
    -3.58903267e-08
    1.43694644e-07
    -1.75274012e-06
    -6.72456636e-06
    4.3668833e-06
    -3.66809126e-07
    -1.67044869e-07
    -9.62239337e-16
    9.23776643e-06
    2.72293044e-06
    1.46732891e-06
    -1.58559307e-15
    9.48432352e-05
    0.000117457301
    7.96004249e-06
    -6.72504794e-16
    0.000730104993
    0.000257733969
    5.02054622e-07
    -7.91047724e-15
    -4.11041218e-05
    0.000285007723
    -0.000193161426
    -2.30212279e-14
    -3.50811663e-06
    6.35298527e-16
    1.28379814e-06
    -1.19097945e-16
    -2.22717452e-06
    5.26970723e-10
    2.28440671e-08
    -1.92246028e-08
    4.54195681e-07
    -3.61421594e-06
    -2.06856231e-05
    1.22660637e-05
    -8.98137192e-06
    -2.18786034e-05
    -8.48986992e-16
    2.66355656e-05
    2.23128185e-05
    0.000134598189
    -1.97790128e-15
    0.000410017222
    -0.000255716177
    5.17143419e-05
    -7.20823545e-18
    -0.00237261395
    0.00151671697
    0.000125094636
    -1.60843282e-14
    0.000391046127
    0.000228826089
    -6.16447549e-06
    3.09130469e-14
    5.21838338e-05
    1.27115008e-15
    -3.83345458e-06
    9.66396101e-16
    -6.65604983e-05
    4.43577265e-06
    0.000103654581
    -4.00935299e-05
    -0.000870474801
    -2.65578457e-05
    1.51178806e-05
    -6.54326641e-16
Sym=X
Ene=0.135705
Spin=Alpha
Occup=1
    1.81341274e-09
    -1.46427848e-08
    1.35761967e-07
    -3.65480608e-07
    5.5171502e-06
    2.19786852e-05
    -1.26600009e-05
    6.87102947e-07
    3.15916632e-06
    1.6719616e-15
    -5.4091271e-05
    -1.29329603e-05
    -1.93468053e-05
    3.7538284e-15
    0.000432454033
    4.27660699e-05
    0.000241916153
    3.34902948e-15
    -0.00115424376
    -0.000361831371
    0.000574739384
    -9.04856444e-15
    -0.000457730686
    -0.000224687188
    -9.32208784e-05
    5.143199e-15
    -1.69019851e-05
    4.69740501e-17
    -1.92920991e-06
    -1.09981399e-16
    8.40082289e-06
    -3.3336225e-07
    -3.09086964e-05
    2.64416334e-05
    -0.000103719339
    -6.04974622e-07
    -2.84005915e-06
    6.10395636e-16
    2.51459501e-06
    3.07676503e-06
    0.000188756637
    0.000501405827
    -4.55073839e-06
    3.0617504e-06
    1.13453448e-15
    -1.16637777e-06
    -8.53745723e-05
    8.66899469e-05
    -0.00011284705
    -4.75216724e-06
    1.90257609e-05
    -1.53633445e-15
    6.31863175e-10
    2.61168988e-10
    3.54045408e-08
    -9.16777128e-09
    1.09322048e-06
    4.82432602e-06
    -2.03936818e-06
    -1.27514362e-06
    -6.05905404e-07
    -1.59986171e-15
    -1.67531869e-05
    5.2751989e-06
    7.07241037e-07
    -1.43783692e-15
    0.000202885132
    0.000322856076
    -3.03334722e-05
    -1.58542081e-15
    0.00130287051
    0.0010580194
    4.85967575e-05
    -2.64602246e-14
    0.000872161211
    0.000236313407
    0.000400187957
    -2.35455664e-14
    4.96931568e-07
    -1.27828781e-15
    -4.39546608e-06
    -4.59626412e-17
    -2.98366502e-06
    -1.76493447e-09
    -1.5945098e-08
    -6.01066764e-08
    -2.73545015e-07
    -6.00665444e-08
    1.86980949e-06
    -2.20639491e-06
    1.94200308e-06
    2.85822233e-07
    -1.05855589e-15
    -6.59319707e-06
    -6.33391354e-06
    4.04899769e-07
    -1.1327138e-15
    5.25396824e-05
    3.28613265e-05
    -2.69105853e-05
    -4.10868157e-15
    0.000444582727
    6.28015619e-05
    -8.17255086e-05
    2.01777813e-15
    0.00178719041
    0.00025421781
    -5.92309501e-05
    6.475049e-15
    -1.37708587e-06
    2.46218313e-16
    -1.33281042e-06
    -4.25291801e-16
    -1.24001754e-06
    2.27563897e-08
    -3.04000325e-08
    1.39297935e-06
    -1.08365543e-06
    4.718119e-05
    0.000195639863
    -8.34438978e-05
    3.02626077e-05
    1.95072131e-05
    -9.49292349e-16
    -0.000387742345
    -0.000473899774
    -0.000362679227
    -2.67628596e-15
    0.00056999348
    0.000147133285
    -7.54655738e-05
    -2.12639474e-15
    0.000145063453
    0.00310205589
    0.00158329878
    -1.93480325e-14
    -0.000236960598
    0.000348152227
    -0.00075035553
    3.60400768e-14
    -0.000301610736
    -1.46539097e-15
    8.33543477e-05
    -3.42883079e-16
    -0.000123125258
    -0.0010432874
    -0.0079363588
    -0.0389137474
    -0.132427626
    -0.327735402
    -0.156213381
    -0.470786268
    0.00145037372
    0.00106157721
    -9.85028352e-16
    -0.00573328912
    -0.000665185976
    -0.000485881449
    -2.39705164e-15
    0.00108620092
    0.000167167537
    0.000132455558
    -2.56091526e-15
    -0.00283559605
    0.000254417469
    0.000195373786
    -1.91629389e-15
    -0.0054355001
    0.00103709419
    0.000413140557
    -3.53012077e-15
    0.0004932073
    3.07903402e-19
    7.95425507e-05
    1.87569953e-16
    0.000152585017
    1.2846663e-09
    -2.71295503e-08
    1.29937367e-07
    -5.94386595e-07
    7.06331238e-06
    2.80914748e-05
    -1.94934389e-05
    2.30200429e-05
    -6.56124246e-06
    -2.34344589e-15
    -2.57619542e-05
    -8.36916579e-05
    3.4686998e-05
    -1.04804818e-15
    -0.000138598911
    0.00018486022
    0.000160431494
    -9.41831646e-15
    -5.34339276e-05
    0.000387955283
    -0.000174779374
    1.5760457e-14
    0.00180200248
    0.00232366625
    -5.9725906e-06
    -4.90250811e-15
    2.6930933e-05
    -3.13785727e-17
    6.27756724e-06
    5.62594659e-17
    -3.3053712e-05
    3.81865845e-10
    -6.45315643e-09
    3.58907627e-08
    -1.43696699e-07
    1.75276445e-06
    6.72466586e-06
    -4.36695111e-06
    3.66780629e-07
    1.67092385e-07
    9.62238603e-16
    -9.23791416e-06
    -2.72285213e-06
    -1.4674984e-06
    1.58558462e-15
    -9.48432284e-05
    -0.000117457279
    -7.95999223e-06
    6.72504014e-16
    -0.000730105274
    -0.000257733726
    -5.02031734e-07
    7.91045223e-15
    4.11105425e-05
    -0.000285008823
    0.000193163927
    2.30212498e-14
    3.50818822e-06
    -6.35296201e-16
    -1.28378162e-06
    1.19098193e-16
    2.22725136e-06
    -5.26970872e-10
    -2.28440677e-08