[Molden Format]
[Atoms] (Angs)
  C      1    6     -0.00754183     -1.75895763      0.00000000
  H      2    1     -2.09769850     -1.41880678     -0.00000000
  H      3    1     -0.13527422     -2.83956838     -0.00000000
  H      4    1      0.04053511      2.02026369      0.00000000
  C      5    6     -1.22066484      0.39918184     -0.00000000
  O      6    8     -2.25210141      1.05663720     -0.00000000
  C      7    6      1.24009552      0.27789184      0.00000000
  O      8    8      2.33767996      1.06122493      0.00000000
  N      9    7      0.03634586      1.00852936      0.00000000
  N     10    7     -1.18738304     -0.97903470     -0.00000000
  C     11    6      1.22288875     -1.12258096      0.00000000
  H     12    1      2.15640383     -1.68445878      0.00000000
[GTO]
1    0
S    1    1.000000
   4.56324000E+03    1.96665000E-03 
S    1    1.000000
   6.82024000E+02    1.52306000E-02 
S    1    1.000000
   1.54973000E+02    7.61269000E-02 
S    1    1.000000
   4.44553000E+01    2.60801000E-01 
S    1    1.000000
   1.30290000E+01    6.16462000E-01 
S    1    1.000000
   1.82773000E+00    2.21006000E-01 
SP   3    1.000000
   2.09642000E+01    1.14660000E-01   4.02487000E-02 
   4.80331000E+00    9.19999000E-01   2.37594000E-01 
   1.45933000E+00   -3.03068000E-03   8.15854000E-01 
SP   1    1.000000
   4.83456000E-01    1.00000000E+00   1.00000000E+00 
SP   1    1.000000
   1.45585000E-01    1.00000000E+00   1.00000000E+00 
SP   1    1.000000
   4.38000000E-02    1.00000000E+00   1.00000000E+00 
SP   1    1.000000
   1.31927711E-02    1.00000000E+00   1.00000000E+00 
D    1    1.000000
   6.26000000E-01    1.00000000E+00 

2    0
S    3    1.000000
   3.38650000E+01    2.54938000E-02 
   5.09479000E+00    1.90373000E-01 
   1.15879000E+00    8.52161000E-01 
S    1    1.000000
   3.25840000E-01    1.00000000E+00 
S    1    1.000000
   1.02741000E-01    1.00000000E+00 
S    1    1.000000
   3.60000000E-02    1.00000000E+00 
P    1    1.000000
   7.50000000E-01    1.00000000E+00 

3    0
S    3    1.000000
   3.38650000E+01    2.54938000E-02 
   5.09479000E+00    1.90373000E-01 
   1.15879000E+00    8.52161000E-01 
S    1    1.000000
   3.25840000E-01    1.00000000E+00 
S    1    1.000000
   1.02741000E-01    1.00000000E+00 
S    1    1.000000
   3.60000000E-02    1.00000000E+00 
P    1    1.000000
   7.50000000E-01    1.00000000E+00 

4    0
S    3    1.000000
   3.38650000E+01    2.54938000E-02 
   5.09479000E+00    1.90373000E-01 
   1.15879000E+00    8.52161000E-01 
S    1    1.000000
   3.25840000E-01    1.00000000E+00 
S    1    1.000000
   1.02741000E-01    1.00000000E+00 
S    1    1.000000
   3.60000000E-02    1.00000000E+00 
P    1    1.000000
   7.50000000E-01    1.00000000E+00 

5    0
S    1    1.000000
   4.56324000E+03    1.96665000E-03 
S    1    1.000000
   6.82024000E+02    1.52306000E-02 
S    1    1.000000
   1.54973000E+02    7.61269000E-02 
S    1    1.000000
   4.44553000E+01    2.60801000E-01 
S    1    1.000000
   1.30290000E+01    6.16462000E-01 
S    1    1.000000
   1.82773000E+00    2.21006000E-01 
SP   3    1.000000
   2.09642000E+01    1.14660000E-01   4.02487000E-02 
   4.80331000E+00    9.19999000E-01   2.37594000E-01 
   1.45933000E+00   -3.03068000E-03   8.15854000E-01 
SP   1    1.000000
   4.83456000E-01    1.00000000E+00   1.00000000E+00 
SP   1    1.000000
   1.45585000E-01    1.00000000E+00   1.00000000E+00 
SP   1    1.000000
   4.38000000E-02    1.00000000E+00   1.00000000E+00 
SP   1    1.000000
   1.31927711E-02    1.00000000E+00   1.00000000E+00 
D    1    1.000000
   6.26000000E-01    1.00000000E+00 

6    0
S    1    1.000000
   8.58850000E+03    1.89515000E-03 
S    1    1.000000
   1.29723000E+03    1.43859000E-02 
S    1    1.000000
   2.99296000E+02    7.07320000E-02 
S    1    1.000000
   8.73771000E+01    2.40001000E-01 
S    1    1.000000
   2.56789000E+01    5.94797000E-01 
S    1    1.000000
   3.74004000E+00    2.80802000E-01 
SP   3    1.000000
   4.21175000E+01    1.13889000E-01   3.65114000E-02 
   9.62837000E+00    9.20811000E-01   2.37153000E-01 
   2.85332000E+00   -3.27447000E-03   8.19702000E-01 
SP   1    1.000000
   9.05661000E-01    1.00000000E+00   1.00000000E+00 
SP   1    1.000000
   2.55611000E-01    1.00000000E+00   1.00000000E+00 
SP   1    1.000000
   8.45000000E-02    1.00000000E+00   1.00000000E+00 
SP   1    1.000000
   2.54518072E-02    1.00000000E+00   1.00000000E+00 
D    1    1.000000
   1.29200000E+00    1.00000000E+00 

7    0
S    1    1.000000
   4.56324000E+03    1.96665000E-03 
S    1    1.000000
   6.82024000E+02    1.52306000E-02 
S    1    1.000000
   1.54973000E+02    7.61269000E-02 
S    1    1.000000
   4.44553000E+01    2.60801000E-01 
S    1    1.000000
   1.30290000E+01    6.16462000E-01 
S    1    1.000000
   1.82773000E+00    2.21006000E-01 
SP   3    1.000000
   2.09642000E+01    1.14660000E-01   4.02487000E-02 
   4.80331000E+00    9.19999000E-01   2.37594000E-01 
   1.45933000E+00   -3.03068000E-03   8.15854000E-01 
SP   1    1.000000
   4.83456000E-01    1.00000000E+00   1.00000000E+00 
SP   1    1.000000
   1.45585000E-01    1.00000000E+00   1.00000000E+00 
SP   1    1.000000
   4.38000000E-02    1.00000000E+00   1.00000000E+00 
SP   1    1.000000
   1.31927711E-02    1.00000000E+00   1.00000000E+00 
D    1    1.000000
   6.26000000E-01    1.00000000E+00 

8    0
S    1    1.000000
   8.58850000E+03    1.89515000E-03 
S    1    1.000000
   1.29723000E+03    1.43859000E-02 
S    1    1.000000
   2.99296000E+02    7.07320000E-02 
S    1    1.000000
   8.73771000E+01    2.40001000E-01 
S    1    1.000000
   2.56789000E+01    5.94797000E-01 
S    1    1.000000
   3.74004000E+00    2.80802000E-01 
SP   3    1.000000
   4.21175000E+01    1.13889000E-01   3.65114000E-02 
   9.62837000E+00    9.20811000E-01   2.37153000E-01 
   2.85332000E+00   -3.27447000E-03   8.19702000E-01 
SP   1    1.000000
   9.05661000E-01    1.00000000E+00   1.00000000E+00 
SP   1    1.000000
   2.55611000E-01    1.00000000E+00   1.00000000E+00 
SP   1    1.000000
   8.45000000E-02    1.00000000E+00   1.00000000E+00 
SP   1    1.000000
   2.54518072E-02    1.00000000E+00   1.00000000E+00 
D    1    1.000000
   1.29200000E+00    1.00000000E+00 

9    0
S    1    1.000000
   6.29348000E+03    1.96979000E-03 
S    1    1.000000
   9.49044000E+02    1.49613000E-02 
S    1    1.000000
   2.18776000E+02    7.35006000E-02 
S    1    1.000000
   6.36916000E+01    2.48937000E-01 
S    1    1.000000
   1.88282000E+01    6.02460000E-01 
S    1    1.000000
   2.72023000E+00    2.56202000E-01 
SP   3    1.000000
   3.06331000E+01    1.11906000E-01   3.83119000E-02 
   7.02614000E+00    9.21666000E-01   2.37403000E-01 
   2.11205000E+00   -2.56919000E-03   8.17592000E-01 
SP   1    1.000000
   6.84009000E-01    1.00000000E+00   1.00000000E+00 
SP   1    1.000000
   2.00878000E-01    1.00000000E+00   1.00000000E+00 
SP   1    1.000000
   6.39000000E-02    1.00000000E+00   1.00000000E+00 
SP   1    1.000000
   1.92469880E-02    1.00000000E+00   1.00000000E+00 
D    1    1.000000
   9.13000000E-01    1.00000000E+00 

10    0
S    1    1.000000
   6.29348000E+03    1.96979000E-03 
S    1    1.000000
   9.49044000E+02    1.49613000E-02 
S    1    1.000000
   2.18776000E+02    7.35006000E-02 
S    1    1.000000
   6.36916000E+01    2.48937000E-01 
S    1    1.000000
   1.88282000E+01    6.02460000E-01 
S    1    1.000000
   2.72023000E+00    2.56202000E-01 
SP   3    1.000000
   3.06331000E+01    1.11906000E-01   3.83119000E-02 
   7.02614000E+00    9.21666000E-01   2.37403000E-01 
   2.11205000E+00   -2.56919000E-03   8.17592000E-01 
SP   1    1.000000
   6.84009000E-01    1.00000000E+00   1.00000000E+00 
SP   1    1.000000
   2.00878000E-01    1.00000000E+00   1.00000000E+00 
SP   1    1.000000
   6.39000000E-02    1.00000000E+00   1.00000000E+00 
SP   1    1.000000
   1.92469880E-02    1.00000000E+00   1.00000000E+00 
D    1    1.000000
   9.13000000E-01    1.00000000E+00 

11    0
S    1    1.000000
   4.56324000E+03    1.96665000E-03 
S    1    1.000000
   6.82024000E+02    1.52306000E-02 
S    1    1.000000
   1.54973000E+02    7.61269000E-02 
S    1    1.000000
   4.44553000E+01    2.60801000E-01 
S    1    1.000000
   1.30290000E+01    6.16462000E-01 
S    1    1.000000
   1.82773000E+00    2.21006000E-01 
SP   3    1.000000
   2.09642000E+01    1.14660000E-01   4.02487000E-02 
   4.80331000E+00    9.19999000E-01   2.37594000E-01 
   1.45933000E+00   -3.03068000E-03   8.15854000E-01 
SP   1    1.000000
   4.83456000E-01    1.00000000E+00   1.00000000E+00 
SP   1    1.000000
   1.45585000E-01    1.00000000E+00   1.00000000E+00 
SP   1    1.000000
   4.38000000E-02    1.00000000E+00   1.00000000E+00 
SP   1    1.000000
   1.31927711E-02    1.00000000E+00   1.00000000E+00 
D    1    1.000000
   6.26000000E-01    1.00000000E+00 

12    0
S    3    1.000000
   3.38650000E+01    2.54938000E-02 
   5.09479000E+00    1.90373000E-01 
   1.15879000E+00    8.52161000E-01 
S    1    1.000000
   3.25840000E-01    1.00000000E+00 
S    1    1.000000
   1.02741000E-01    1.00000000E+00 
S    1    1.000000
   3.60000000E-02    1.00000000E+00 
P    1    1.000000
   7.50000000E-01    1.00000000E+00 

[MO]
Sym=X
Ene=0.002965
Spin=Alpha
Occup=1
1    -1.81289469e-09
2    1.4640995e-08
3    -1.35728454e-07
4    3.65427464e-07
5    -5.51598209e-06
6    -2.19741234e-05
7    1.26575817e-05
8    -6.88082769e-07
9    -3.15851258e-06
10    -1.67271502e-15
11    5.40789585e-05
12    1.29421925e-05
13    1.93425901e-05
14    -3.75718746e-15
15    -0.000432360927
16    -4.27393604e-05
17    -0.000241820393
18    -3.3504076e-15
19    0.00115601268
20    0.000361860973
21    -0.000574013545
22    9.04359963e-15
23    0.000457899248
24    0.000224811857
25    9.31163791e-05
26    -5.13726631e-15
27    1.69058962e-05
28    -4.71257007e-17
29    1.92810666e-06
30    1.10051952e-16
31    -8.39766974e-06
32    3.29147837e-07
33    3.09202606e-05
34    -2.64323923e-05
35    0.000103672889
36    6.03595423e-07
37    2.84582079e-06
38    -6.10565303e-16
39    -2.5155478e-06
40    -3.06282862e-06
41    -0.000188692111
42    -0.000500966264
43    4.55111924e-06
44    -3.05937291e-06
45    -1.135328e-15
46    1.16296217e-06
47    8.53649042e-05
48    -8.66350849e-05
49    0.000112779242
50    4.74761351e-06
51    -1.90236538e-05
52    1.53676551e-15
53    -6.2571419e-10
54    -1.91679659e-10
55    -3.5176616e-08
56    1.08988441e-08
57    -1.08648562e-06
58    -4.74419907e-06
59    2.04223675e-06
60    1.29166006e-06
61    5.94759096e-07
62    1.60028281e-15
63    1.64790297e-05
64    -4.99682843e-06
65    -8.82962936e-07
66    1.43934804e-15
67    -0.000202327393
68    -0.000323151064
69    3.05198315e-05
70    1.58548804e-15
71    -0.0013015915
72    -0.00105965503
73    -4.74932758e-05
74    2.64656862e-14
75    -0.000872988428
76    -0.000236373174
77    -0.000400332138
78    2.35336004e-14
79    -3.42048948e-07
80    1.27894345e-15
81    4.4443115e-06
82    4.59797109e-17
83    2.91236404e-06
84    -6.24252337e-07
85    -4.74623023e-06
86    -2.3290359e-05
87    -7.91943252e-05
88    -0.000196626835
89    -9.51088027e-05
90    -0.000280451015
91    -2.92388687e-06
92    3.18205694e-07
93    1.05933675e-15
94    3.65413251e-06
95    6.79866088e-06
96    -6.92591355e-07
97    1.13315577e-15
98    -5.2189674e-05
99    -3.31201487e-05
100    2.70689372e-05
101    4.11206641e-15
102    -0.000446551165
103    -6.29369369e-05
104    8.18194616e-05
105    -2.02001272e-15
106    -0.00179172445
107    -0.000255056112
108    5.96566453e-05
109    -6.47390811e-15
110    1.31506256e-06
111    -2.46232273e-16
112    1.38314276e-06
113    4.25462559e-16
114    1.26713704e-06
115    -2.27558889e-08
116    3.03994246e-08
117    -1.39294946e-06
118    1.08362891e-06
119    -4.71802301e-05
120    -0.000195635988
121    8.34420378e-05
122    -3.02643933e-05
123    -1.9507454e-05
124    9.49464048e-16
125    0.000387731626
126    0.000473910828
127    0.000362676775
128    2.67690594e-15
129    -0.000569956886
130    -0.000147295599
131    7.53413631e-05
132    2.12470067e-15
133    -0.000143495812
134    -0.00310279818
135    -0.00158366555
136    1.93443557e-14
137    0.000237275165
138    -0.000348250142
139    0.000750508597
140    -3.60198409e-14
141    0.000301610504
142    1.46602685e-15
143    -8.33552228e-05
144    3.42984669e-16
145    0.000123121212
146    0.00104328722
147    0.00793635738
148    0.0389137404
149    0.132427602
150    0.327735344
151    0.156213356
152    0.470786182
153    -0.00145037475
154    -0.00106157727
155    9.85383997e-16
156    0.00573328088
157    0.000665190375
158    0.000485882837
159    2.39757645e-15
160    -0.001086153
161    -0.000167200747
162    -0.000132472807
163    2.56122113e-15
164    0.00283586142
165    -0.000254446451
166    -0.000195415516
167    1.91853342e-15
168    0.00543690444
169    -0.00103733182
170    -0.000413191161
171    3.52585108e-15
172    -0.000493206713
173    -4.85496103e-19
174    -7.95429817e-05
175    -1.87653854e-16
176    -0.000152584981
177    -1.28403846e-09
178    2.71120194e-08
179    -1.29864708e-07
180    5.94009374e-07
181    -7.05904172e-06
182    -2.80739326e-05
183    1.94812872e-05
184    -2.30308767e-05
185    6.560968e-06
186    2.34407637e-15
187    2.5737824e-05
188    8.37276116e-05
189    -3.46827158e-05
190    1.04888705e-15
191    0.000138592301
192    -0.000184870219
193    -0.000160405896
194    9.42088838e-15
195    5.32438565e-05
196    -0.000387916245
197    0.000174682385
198    -1.57614942e-14
199    -0.00180116829
200    -0.00232504862
201    6.02042599e-06
202    4.89857848e-15
203    -2.69371192e-05
204    3.16427271e-17
205    -6.27499365e-06
206    -5.61182702e-17
207    3.3034784e-05
208    -3.81093151e-10
209    6.43567732e-09
210    -3.58101385e-08
211    1.4331661e-07
212    -1.7482659e-06
213    -6.706264e-06
214    4.35441096e-06
215    -3.72050607e-07
216    -1.58305042e-07
217    -9.62374194e-16
218    9.21059223e-06
219    2.73733229e-06
220    1.4361534e-06
221    -1.58714691e-15
222    9.48444706e-05
223    0.000117461418
224    7.96928397e-06
225    -6.72648172e-16
226    0.000730053046
227    0.000257778646
228    5.06264359e-07
229    -7.91507505e-15
230    -3.99231485e-05
231    0.000284805346
232    -0.000192701309
233    -2.30171902e-14
234    -3.49494913e-06
235    6.35726213e-16
236    1.28683767e-06
237    -1.19052312e-16
238    -2.2130415e-06
239    5.26943225e-10
240    2.28439505e-08
241    -1.92259005e-08
242    4.54195434e-07
243    -3.61420685e-06
244    -2.06852481e-05
245    1.22659786e-05
246    -8.98214142e-06
247    -2.18779993e-05
248    -8.49818705e-16
249    2.6638293e-05
250    2.23196765e-05
251    0.000134593464
252    -1.97979727e-15
253    0.000409828686
254    -0.000255600908
255    5.16510973e-05
256    -9.1228842e-18
257    -0.00237484603
258    0.00151724225
259    0.000124795829
260    -1.60827072e-14
261    0.000391057121
262    0.000228893522
263    -6.02912071e-06
264    3.08924841e-14
265    5.21811257e-05
266    1.27182522e-15
267    -3.83353746e-06
268    9.66890977e-16
269    -6.65589006e-05
270    4.43591006e-06
271    0.000103635574
272    -4.01409884e-05
273    -0.000870548666
274    -2.65550214e-05
275    1.51161354e-05
276    -6.54859461e-16
Sym=X
Ene=0.958873
Spin=Alpha
Occup=1
1    -8.63316685e-10
2    2.9799912e-09
3    -5.58417708e-08
4    8.85095591e-08
5    -1.94617672e-06
6    -7.60030108e-06
7    4.03029805e-06
8    1.63404885e-06
9    -1.08917085e-06
10    1.25682449e-15
11    2.0514864e-05
12    -1.53985817e-05
13    7.02299753e-06
14    5.60230832e-15
15    -0.00015512425
16    -4.45251618e-05
17    -0.000159607036
18    2.29900339e-15
19    -0.0029500022
20    -4.94684233e-05
21    -0.00121016058
22    8.2760969e-15
23    -0.000281211996
24    -0.000207951588
25    0.000174224046
26    -9.89117748e-15
27    -6.52684695e-06
28    2.52890027e-16
29    1.83907715e-06
30    -1.17678821e-16
31    -5.25536592e-06
32    7.02739974e-06
33    -1.92923024e-05
34    -1.540165e-05
35    7.742514e-05
36    2.29962264e-06
37    -9.60833765e-06
38    2.83099583e-16
39    1.58951602e-06
40    -2.32379445e-05
41    -0.000107540645
42    -0.000732819837
43    -6.36410157e-07
44    -3.96354575e-06
45    1.32352198e-15
46    5.69513936e-06
47    1.60961613e-05
48    -9.14562647e-05
49    0.000113035708
50    7.59189418e-06
51    -3.50792713e-06
52    -7.19244224e-16
53    -1.0253194e-08
54    -1.15872802e-07
55    -3.80052257e-07
56    -2.88655222e-06
57    -1.12299988e-05
58    -0.00013360959
59    -4.78392382e-06
60    -2.7541403e-05
61    1.85861965e-05
62    -7.02654564e-16
63    0.00045714997
64    -0.000464178879
65    0.000293015014
66    -2.52020842e-15
67    -0.000929965562
68    0.000491986452
69    -0.000310761538
70    -1.12576558e-16
71    -0.00213235056
72    0.00272771863
73    -0.00184003213
74    -9.11499026e-15
75    0.00137963568
76    9.97310069e-05
77    0.000240539747
78    1.99462525e-14
79    -0.000258265332
80    -1.09365269e-15
81    -8.14506285e-05
82    -2.84771268e-17
83    0.000118892894
84    0.00104387859
85    0.00794088772
86    0.0389367071
87    0.132512012
88    0.327973772
89    0.155475246
90    0.471328878
91    0.00163728363
92    -0.00100721146
93    -1.30238959e-15
94    0.00490086374
95    -0.000774964203
96    0.000479723446
97    -7.37331878e-16
98    -0.000583620432
99    0.00043159372
100    -0.000264058429
101    -5.64541968e-15
102    0.00328248589
103    0.000225755278
104    -0.000156690129
105    3.7267601e-15
106    0.00756099977
107    0.00139793722
108    -0.000709860841
109    -1.90051266e-15
110    0.000103422955
111    2.33495776e-17
112    -8.39291598e-05
113    -2.84864231e-16
114    -4.52219119e-05
115    -8.2831184e-10
116    1.00453361e-09
117    -4.94367189e-08
118    4.39094777e-08
119    -1.58648712e-06
120    -6.40344437e-06
121    3.07684795e-06
122    2.98654055e-06
123    4.07505961e-07
124    -2.86587904e-16
125    1.77573862e-05
126    -1.85729245e-05
127    3.98184582e-06
128    -1.03461064e-15
129    -6.08512952e-05
130    0.000270699517
131    0.000207097833
132    2.82422572e-15
133    -0.00261398425
134    0.00123867811
135    0.000612056507
136    6.12529412e-15
137    -0.000524608845
138    0.000163376003
139    -0.000255460454
140    -3.3732587e-14
141    2.97208612e-07
142    -1.0607578e-15
143    1.48383176e-06
144    -1.69500979e-16
145    6.71030199e-06
146    1.58871071e-09
147    1.74884501e-08
148    4.69203396e-08
149    3.0805719e-07
150    -5.55842215e-07
151    -4.2318956e-06
152    3.69735288e-06
153    2.1461472e-06
154    4.12799852e-07
155    -5.93326627e-16
156    1.20431116e-05
157    -7.53262184e-06
158    -2.45791212e-06
159    -8.7582532e-16
160    -7.95884799e-05
161    5.54263137e-05
162    2.88009651e-05
163    -5.10793934e-16
164    -0.000443349759
165    4.84026257e-05
166    6.96430665e-05
167    -3.73496758e-15
168    -0.002343344
169    0.00039655567
170    8.45040655e-05
171    7.11862109e-15
172    -8.32506312e-07
173    2.96134442e-16
174    7.42335926e-07
175    1.39960571e-16
176    -1.53088765e-08
177    -1.04654471e-09
178    2.92247223e-08
179    -1.21120805e-07
180    6.28836162e-07
181    -7.11918237e-06
182    -2.92430834e-05
183    2.02570071e-05
184    1.80719865e-05
185    4.55721116e-07
186    -1.05200698e-15
187    4.02293924e-05
188    -5.99772458e-05
189    -7.13015507e-06
190    -1.39912177e-15
191    1.09816001e-05
192    1.67274939e-05
193    -4.26378741e-05
194    -4.29144274e-15
195    0.000316926171
196    -6.4979951e-05
197    0.000161676631
198    1.73411165e-15
199    -0.0013904825
200    0.00230577278
201    -7.97668749e-05
202    6.55117147e-15
203    1.03234671e-05
204    -4.4048452e-16
205    -4.28957522e-06
206    -2.35425895e-16
207    3.15525165e-05
208    -1.28834741e-09
209    2.91443665e-08
210    -1.34429548e-07
211    6.33752778e-07
212    -7.5007606e-06
213    -3.06829574e-05
214    2.09093013e-05
215    8.78775246e-06
216    -1.46527721e-05
217    2.2638258e-16
218    4.55563559e-05
219    -2.4146347e-05
220    5.22670848e-05
221    2.60557974e-15
222    -2.09952094e-06
223    -6.93675374e-06
224    -1.54962567e-05
225    2.40581239e-16
226    8.68732171e-05
227    -7.49813082e-05
228    -7.05801657e-06
229    7.71085115e-15
230    -0.00197995737
231    0.000339211543
232    -0.00077135513
233    -6.76256968e-15
234    -2.20750235e-05
235    -7.17230114e-16
236    -5.09632372e-06
237    -7.64718478e-17
238    -2.36941597e-05
239    4.59460282e-11
240    1.88667284e-10
241    2.1813555e-09
242    2.79084245e-10
243    -1.41559109e-08
244    -6.2263948e-07
245    1.38943331e-07
246    1.29278686e-06
247    -1.00635862e-06
248    1.39466656e-15
249    -4.58057524e-06
250    -1.15046345e-05
251    7.88166864e-06
252    3.17932648e-15
253    0.000315969953
254    -0.000193178864
255    0.000106017905
256    3.2100208e-15
257    0.00374293221
258    -0.000881117478
259    0.000500930352
260    -2.71285759e-15
261    -1.85491116e-05
262    -0.000113123855
263    -0.000226928235
264    3.44655737e-14
265    4.5248295e-06
266    -1.13228408e-15
267    1.40091994e-07
268    -8.29976299e-16
269    -2.65895823e-06
270    -2.31703094e-07
271    3.18342181e-05
272    7.95787982e-05
273    0.00012409837
274    -4.72718661e-06
275    2.92133185e-06
276    8.9349955e-16
Sym=X
Ene=0.95723
Spin=Alpha
Occup=1
1    -1.81341002e-09
2    1.46427754e-08
3    -1.35761791e-07
4    3.65480329e-07
5    -5.51714407e-06
6    -2.19786613e-05
7    1.26599882e-05
8    -6.87108095e-07
9    -3.15916289e-06
10    -1.67196555e-15
11    5.40912064e-05
12    1.29330088e-05
13    1.93467831e-05
14    -3.75384605e-15
15    -0.000432453544
16    -4.27659296e-05
17    -0.00024191565
18    -3.34903672e-15
19    0.00115425305
20    0.000361831527
21    -0.000574735572
22    9.04853837e-15
23    0.000457731572
24    0.000224687843
25    9.32203295e-05
26    -5.14316784e-15
27    1.69020056e-05
28    -4.69748468e-17
29    1.92920411e-06
30    1.0998177e-16
31    -8.40080633e-06
32    3.33340111e-07
33    3.09087572e-05
34    -2.64415849e-05
35    0.000103719095
36    6.04967377e-07
37    2.84008942e-06
38    -6.10396528e-16
39    -2.51460002e-06
40    -3.07669182e-06
41    -0.000188756298
42    -0.000501403518
43    4.5507404e-06
44    -3.06173792e-06
45    -1.13453865e-15
46    1.16635983e-06
47    8.53745216e-05
48    -8.66896588e-05
49    0.000112846694
50    4.75214332e-06
51    -1.90257499e-05
52    1.53633671e-15
53    -6.31830874e-10
54    -2.60803942e-10
55    -3.54033435e-08
56    9.17686509e-09
57    -1.0931851e-06
58    -4.8239051e-06
59    2.03938325e-06
60    1.27523039e-06
61    6.0584685e-07
62    1.59986392e-15
63    1.67517467e-05
64    -5.27373654e-06
65    -7.08164153e-07
66    1.43784486e-15
67    -0.000202882203
68    -0.000322857626
69    3.03344512e-05
70    1.58542116e-15
71    -0.00130286379
72    -0.00105802799
73    -4.85909606e-05
74    2.64602533e-14
75    -0.000872165557
76    -0.000236313721
77    -0.000400188715
78    2.35455036e-14
79    -4.96117927e-07
80    1.27829126e-15
81    4.39572268e-06
82    4.59627309e-17
83    2.98329046e-06
84    -1.52370689e-09
85    -9.07192217e-09
86    -6.25597587e-08
87    -1.43921621e-07
88    -9.73183989e-07
89    -2.35961963e-06
90    7.21517598e-07
91    -1.94716119e-06
92    -2.82649108e-07
93    1.05855999e-15
94    6.57775736e-06
95    6.33635499e-06
96    -4.06411092e-07
97    1.13271612e-15
98    -5.25378437e-05
99    -3.28626862e-05
100    2.69114172e-05
101    4.10869935e-15
102    -0.000444593068
103    -6.28022732e-05
104    8.17260022e-05
105    -2.01778987e-15
106    -0.00178721423
107    -0.000254222214
108    5.92331864e-05
109    -6.47504301e-15
110    1.37676005e-06
111    -2.46218387e-16
112    1.33307483e-06
113    4.25292698e-16
114    1.24016e-06
115    -2.27563871e-08
116    3.04000293e-08
117    -1.3929792e-06
118    1.08365529e-06
119    -4.7181185e-05
120    -0.000195639843
121    8.34438881e-05
122    -3.02626171e-05
123    -1.95072144e-05
124    9.49293252e-16
125    0.000387742289
126    0.000473899833
127    0.000362679214
128    2.67628922e-15
129    -0.000569993288
130    -0.000147134138
131    7.54649213e-05
132    2.12638584e-15
133    -0.000145055217
134    -0.00310205979
135    -0.00158330071
136    1.93480132e-14
137    0.000236962251
138    -0.000348152741
139    0.000750356335
140    -3.60399706e-14
141    0.000301610735
142    1.46539431e-15
143    -8.33543524e-05
144    3.42883613e-16
145    0.000123125237
146    0.0010432874
147    0.0079363588
148    0.0389137474
149    0.132427626
150    0.327735402
151    0.156213381
152    0.470786268
153    -0.00145037373
154    -0.00106157721
155    9.85030221e-16
156    0.00573328908
157    0.000665186
158    0.000485881457
159    2.3970544e-15
160    -0.00108620067
161    -0.000167167712
162    -0.000132455649
163    2.56091687e-15
164    0.00283559744
165    -0.000254417621
166    -0.000195374005
167    1.91630566e-15
168    0.00543550748
169    -0.00103709544
170    -0.000413140823
171    3.53009834e-15
172    -0.000493207297
173    -3.08836346e-19
174    -7.9542553e-05
175    -1.87570394e-16
176    -0.000152585017
177    -1.28466301e-09
178    2.71294583e-08
179    -1.29936986e-07
180    5.94384614e-07
181    -7.06328995e-06
182    -2.80913827e-05
183    1.9493375e-05
184    -2.30200999e-05
185    6.56124103e-06
186    2.34344921e-15
187    2.57618275e-05
188    8.36918469e-05
189    -3.46869755e-05
190    1.04805259e-15
191    0.000138598877
192    -0.000184860273
193    -0.00016043136
194    9.41832998e-15
195    5.34329292e-05
196    -0.000387955078
197    0.000174778865
198    -1.57604625e-14
199    -0.0018019981
200    -0.00232367351
201    5.9728419e-06
202    4.90248748e-15
203    -2.69309655e-05
204    3.13799604e-17
205    -6.27755373e-06
206    -5.62587242e-17
207    3.30536126e-05
208    -3.81861786e-10
209    6.45306462e-09
210    -3.58903392e-08
211    1.43694702e-07
212    -1.75274082e-06
213    -6.7245692e-06
214    4.36688523e-06
215    -3.66808314e-07
216    -1.67046223e-07
217    -9.62239316e-16
218    9.23777064e-06
219    2.72292821e-06
220    1.46733374e-06
221    -1.58559283e-15
222    9.4843235e-05
223    0.0001174573
224    7.96004105e-06
225    -6.72504772e-16
226    0.000730105001
227    0.000257733962
228    5.0205397e-07
229    -7.91047653e-15
230    -4.11043048e-05
231    0.000285007754
232    -0.000193161497
233    -2.30212285e-14
234    -3.50811867e-06
235    6.3529846e-16
236    1.28379767e-06
237    -1.19097952e-16
238    -2.22717671e-06
239    5.26970728e-10
240    2.28440671e-08
241    -1.92246026e-08
242    4.54195681e-07
243    -3.61421594e-06
244    -2.06856232e-05
245    1.22660637e-05
246    -8.9813718e-06
247    -2.18786035e-05
248    -8.48986864e-16
249    2.66355652e-05
250    2.23128174e-05
251    0.000134598189
252    -1.97790098e-15
253    0.000410017252
254    -0.000255716195
255    5.17143517e-05
256    -7.20793879e-18
257    -0.0023726136
258    0.00151671689
259    0.000125094682
260    -1.60843284e-14
261    0.000391046125
262    0.000228826078
263    -6.16449646e-06
264    3.09130501e-14
265    5.21838342e-05
266    1.27114998e-15
267    -3.83345457e-06
268    9.66396024e-16
269    -6.65604986e-05
270    4.43577263e-06
271    0.000103654584
272    -4.00935226e-05
273    -0.00087047479
274    -2.65578462e-05
275    1.51178808e-05
276    -6.54326558e-16
Sym=X
Ene=0.064538
Spin=Alpha
Occup=1
1    1.81338185e-09
2    -1.46426781e-08
3    1.35759969e-07
4    -3.65477441e-07
5    5.51708056e-06
6    2.19784133e-05
7    -1.26598567e-05
8    6.8716141e-07
9    3.15912735e-06
10    1.67200656e-15
11    -5.4090537e-05
12    -1.29335112e-05
13    -1.9346554e-05
14    3.75402885e-15
15    0.000432448482
16    4.27644768e-05
17    0.000241910442
18    3.34911173e-15
19    -0.0011543493
20    -0.000361833141
21    0.000574696086
22    -9.04826833e-15
23    -0.000457740747
24    -0.000224694628
25    -9.32146448e-05
26    5.1428451e-15
27    -1.69022186e-05
28    4.69830982e-17
29    -1.92914411e-06
30    -1.0998561e-16
31    8.40063486e-06
32    -3.3311082e-07
33    -3.09093866e-05
34    2.64410824e-05
35    -0.000103716569
36    -6.04892344e-07
37    -2.84040292e-06
38    6.10405764e-16
39    2.51465188e-06
40    3.07593361e-06
41    0.000188752789
42    0.000501379608
43    -4.55076116e-06
44    3.06160859e-06
45    1.13458183e-15
46    -1.16617401e-06
47    -8.53739964e-05
48    8.66866747e-05
49    -0.000112843006
50    -4.75189561e-06
51    1.90256354e-05
52    -1.53636018e-15
53    6.31496331e-10
54    2.57023227e-10
55    3.53909431e-08
56    -9.27104793e-09
57    1.09281869e-06
58    4.81954566e-06
59    -2.03953934e-06
60    -1.27612901e-06
61    -6.05240417e-07
62    -1.59988685e-15
63    -1.67368307e-05
64    5.25859125e-06
65    7.17724689e-07
66    -1.43792709e-15
67    0.000202851859
68    0.000322873678
69    -3.03445908e-05
70    -1.58542484e-15
71    0.00130279422
72    0.00105811699
73    4.85309237e-05
74    -2.64605507e-14
75    0.000872210572
76    0.000236316975
77    0.000400196563
78    -2.35448528e-14
79    4.87691208e-07
80    -1.27832694e-15
81    -4.39838026e-06
82    -4.59636601e-17
83    -2.9794112e-06
84    3.55835284e-08
85    2.68168354e-07
86    1.33299227e-06
87    4.4675427e-06
88    1.16743596e-05
89    7.43248842e-06
90    1.46570691e-05
91    2.00058271e-06
92    2.49785667e-07
93    -1.05860249e-15
94    -6.41785126e-06
95    -6.36164063e-06
96    4.22063578e-07
97    -1.13274018e-15
98    5.25188013e-05
99    3.28767683e-05
100    -2.69200329e-05
101    -4.10888355e-15
102    0.000444700169
103    6.28096391e-05
104    -8.17311147e-05
105    2.01791147e-15
106    0.00178746093
107    0.000254267826
108    -5.92563479e-05
109    6.474981e-15
110    -1.37338555e-06
111    2.46219149e-16
112    -1.33581328e-06
113    -4.25301993e-16
114    -1.24163551e-06
115    2.275636e-08
116    -3.03999965e-08