                  Welcome to Q-Chem
     A Quantum Leap Into The Future Of Chemistry


 Q-Chem 5.2 (devel), Q-Chem, Inc., Pleasanton, CA (2019)

 Yihan Shao,  Zhengting Gan,  E. Epifanovsky,  A. T. B. Gilbert,  M. Wormit,  
 J. Kussmann,  A. W. Lange,  A. Behn,  Jia Deng,  Xintian Feng,  D. Ghosh,  
 M. Goldey,  P. R. Horn,  L. D. Jacobson,  I. Kaliman,  T. Kus,  A. Landau,  
 Jie Liu,  E. I. Proynov,  R. M. Richard,  R. P. Steele,  E. J. Sundstrom,  
 H. L. Woodcock III,  P. M. Zimmerman,  D. Zuev,  B. Albrecht,  E. Alguire,  
 S. A. Baeppler,  D. Barton,  Z. Benda,  Y. A. Bernard,  E. J. Berquist,  
 K. B. Bravaya,  H. Burton,  D. Casanova,  Chun-Min Chang,  Yunqing Chen,  
 A. Chien,  K. D. Closser,  M. P. Coons,  S. Coriani,  S. Dasgupta,  
 A. L. Dempwolff,  M. Diedenhofen,  Hainam Do,  R. G. Edgar,  Po-Tung Fang,  
 S. Faraji,  S. Fatehi,  Qingguo Feng,  K. D. Fenk,  J. Fosso-Tande,  
 J. Gayvert,  Qinghui Ge,  A. Ghysels,  G. Gidofalvi,  J. Gomes,  
 J. Gonthier,  A. Gunina,  D. Hait,  M. W. D. Hanson-Heine,  
 P. H. P. Harbach,  A. W. Hauser,  M. F. Herbst,  J. E. Herr,  
 E. G. Hohenstein,  Z. C. Holden,  Kerwin Hui,  B. C. Huynh,  T.-C. Jagau,  
 Hyunjun Ji,  B. Kaduk,  K. Khistyaev,  Jaehoon Kim,  P. Klunzinger,  K. Koh,  
 D. Kosenkov,  L. Koulias,  T. Kowalczyk,  C. M. Krauter,  A. Kunitsa,  
 Ka Un Lao,  A. Laurent,  K. V. Lawler,  Joonho Lee,  D. Lefrancois,  
 S. Lehtola,  D. S. Levine,  Yi-Pei Li,  You-Sheng Lin,  Fenglai Liu,  
 E. Livshits,  A. Luenser,  P. Manohar,  E. Mansoor,  S. F. Manzer,  
 Shan-Ping Mao,  Yuezhi Mao,  N. Mardirossian,  A. V. Marenich,  
 T. Markovich,  L. A. Martinez-Martinez,  S. A. Maurer,  N. J. Mayhall,  
 S. C. McKenzie,  J.-M. Mewes,  P. Morgante,  A. F. Morrison,  
 J. W. Mullinax,  K. Nanda,  T. S. Nguyen-Beck,  R. Olivares-Amaya,  
 J. A. Parkhill,  Zheng Pei,  T. M. Perrine,  F. Plasser,  P. Pokhilko,  
 S. Prager,  A. Prociuk,  E. Ramos,  D. R. Rehn,  F. Rob,  M. Scheurer,  
 M. Schneider,  N. Sergueev,  S. M. Sharada,  S. Sharma,  D. W. Small,  
 T. Stauch,  T. Stein,  Yu-Chuan Su,  A. J. W. Thom,  A. Tkatchenko,  
 T. Tsuchimochi,  N. M. Tubman,  L. Vogt,  M. L. Vidal,  O. Vydrov,  
 M. A. Watson,  J. Wenzel,  M. de Wergifosse,  T. A. Wesolowski,  A. White,  
 J. Witte,  A. Yamada,  Jun Yang,  K. Yao,  S. Yeganeh,  S. R. Yost,  
 Zhi-Qiang You,  A. Zech,  Igor Ying Zhang,  Xing Zhang,  Yan Zhao,  
 Ying Zhu,  B. R. Brooks,  G. K. L. Chan,  C. J. Cramer,  M. S. Gordon,  
 W. J. Hehre,  A. Klamt,  M. W. Schmidt,  C. D. Sherrill,  D. G. Truhlar,  
 A. Aspuru-Guzik,  R. Baer,  A. T. Bell,  N. A. Besley,  Jeng-Da Chai,  
 A. E. DePrince, III,  R. A. DiStasio Jr.,  A. Dreuw,  B. D. Dunietz,  
 T. R. Furlani,  Chao-Ping Hsu,  Yousung Jung,  Jing Kong,  D. S. Lambrecht,  
 WanZhen Liang,  C. Ochsenfeld,  V. A. Rassolov,  L. V. Slipchenko,  
 J. E. Subotnik,  T. Van Voorhis,  J. M. Herbert,  A. I. Krylov,  
 P. M. W. Gill,  M. Head-Gordon

 Contributors to earlier versions of Q-Chem not listed above: 
 R. D. Adamson,  B. Austin,  J. Baker,  G. J. O. Beran,  K. Brandhorst,  
 S. T. Brown,  E. F. C. Byrd,  A. K. Chakraborty,  C.-L. Cheng,  
 Siu Hung Chien,  D. M. Chipman,  D. L. Crittenden,  H. Dachsel,  
 R. J. Doerksen,  A. D. Dutoi,  L. Fusti-Molnar,  W. A. Goddard III,  
 A. Golubeva-Zadorozhnaya,  S. R. Gwaltney,  G. Hawkins,  A. Heyden,  
 S. Hirata,  G. Kedziora,  F. J. Keil,  C. Kelley,  Jihan Kim,  R. A. King,  
 R. Z. Khaliullin,  P. P. Korambath,  W. Kurlancheek,  A. M. Lee,  M. S. Lee,  
 S. V. Levchenko,  Ching Yeh Lin,  D. Liotard,  R. C. Lochan,  I. Lotan,  
 P. E. Maslen,  N. Nair,  D. P. O'Neill,  D. Neuhauser,  E. Neuscamman,  
 C. M. Oana,  R. Olson,  B. Peters,  R. Peverati,  P. A. Pieniazek,  
 Y. M. Rhee,  J. Ritchie,  M. A. Rohrdanz,  E. Rosta,  N. J. Russ,  
 H. F. Schaefer III,  N. E. Schultz,  N. Shenvi,  A. C. Simmonett,  A. Sodt,  
 D. Stuck,  K. S. Thanthiriwatte,  V. Vanovschi,  Tao Wang,  A. Warshel,  
 C. F. Williams,  Q. Wu,  X. Xu,  W. Zhang

 Please cite Q-Chem as follows:
 Y. Shao et al., Mol. Phys. 113, 184-215 (2015)
 DOI: 10.1080/00268976.2014.952696

 Q-Chem 5.2.0 for Intel X86 EM64T Linux

 Parts of Q-Chem use Armadillo 8.300.2 (Tropical Shenanigans).
 http://arma.sourceforge.net/

 Q-Chem begins on Wed Jun 12 18:30:18 2019  

n-62-24-2
Host: 0

     Scratch files written to /work1/malop/qc_8407565.hnode2/qchem7692//
NAlpha2: 58
NElect   58
Mult     1

Checking the input file for inconsistencies... 	...done.

--------------------------------------------------------------
User input:
--------------------------------------------------------------
$comment
Uracil XPS C K-edge 6-311(2+,+)G** (uc)
Optimized geometry for S1 at ccsd / aug-cc-pVDZ
$end

$molecule
0 1
C        -0.0042112405   -1.7549930536    0.0000000000
H        -2.0949460216   -1.4184138214    0.0000000000
H        -0.1300971688   -2.8358204634    0.0000000000
H         0.0374086733    2.0243048927    0.0000000000
C        -1.2210197500    0.4010705948    0.0000000000
O        -2.2535781024    1.0567627444    0.0000000000
C         1.2399442445    0.2839850904    0.0000000000
O         2.3361887279    1.0691923037    0.0000000000
N         0.0349480223    1.0125648826    0.0000000000
N        -1.1853832587   -0.9770870742    0.0000000000
C         1.2251302704   -1.1165150648    0.0000000000
H         2.1596039787   -1.6767971209    0.0000000000
$end

$rem
JOBTYPE SP
BASIS GENERAL
METHOD HF
n_frozen_core = 2
$end

$basis
H    0
6-311(2+,+)G**
****
O    0
S    1    1.000000
   8.58850000E+03    1.89515000E-03
S    1    1.000000
   1.29723000E+03    1.43859000E-02
S    1    1.000000
   2.99296000E+02    7.07320000E-02
S    1    1.000000
   8.73771000E+01    2.40001000E-01
S    1    1.000000
   2.56789000E+01    5.94797000E-01
S    1    1.000000
   3.74004000E+00    2.80802000E-01
SP   3    1.000000
   4.21175000E+01    1.13889000E-01   3.65114000E-02
   9.62837000E+00    9.20811000E-01   2.37153000E-01
   2.85332000E+00   -3.27447000E-03   8.19702000E-01
SP   1    1.000000
   9.05661000E-01    1.00000000E+00   1.00000000E+00
SP   1    1.000000
   2.55611000E-01    1.00000000E+00   1.00000000E+00
SP   1    1.000000
   8.45000000E-02    1.00000000E+00   1.00000000E+00
SP   1    1.000000
   2.54518072E-02    1.00000000E+00   1.00000000E+00
D    1    1.000000
   1.29200000E+00    1.00000000E+00
****
N    0
S    1    1.000000
   6.29348000E+03    1.96979000E-03
S    1    1.000000
   9.49044000E+02    1.49613000E-02
S    1    1.000000
   2.18776000E+02    7.35006000E-02
S    1    1.000000
   6.36916000E+01    2.48937000E-01
S    1    1.000000
   1.88282000E+01    6.02460000E-01
S    1    1.000000
   2.72023000E+00    2.56202000E-01
SP   3    1.000000
   3.06331000E+01    1.11906000E-01   3.83119000E-02
   7.02614000E+00    9.21666000E-01   2.37403000E-01
   2.11205000E+00   -2.56919000E-03   8.17592000E-01
SP   1    1.000000
   6.84009000E-01    1.00000000E+00   1.00000000E+00
SP   1    1.000000
   2.00878000E-01    1.00000000E+00   1.00000000E+00
SP   1    1.000000
   6.39000000E-02    1.00000000E+00   1.00000000E+00
SP   1    1.000000
   1.92469880E-02    1.00000000E+00   1.00000000E+00
D    1    1.000000
   9.13000000E-01    1.00000000E+00
****
C    0
S    1    1.000000
   4.56324000E+03    1.96665000E-03
S    1    1.000000
   6.82024000E+02    1.52306000E-02
S    1    1.000000
   1.54973000E+02    7.61269000E-02
S    1    1.000000
   4.44553000E+01    2.60801000E-01
S    1    1.000000
   1.30290000E+01    6.16462000E-01
S    1    1.000000
   1.82773000E+00    2.21006000E-01
SP   3    1.000000
   2.09642000E+01    1.14660000E-01   4.02487000E-02
   4.80331000E+00    9.19999000E-01   2.37594000E-01
   1.45933000E+00   -3.03068000E-03   8.15854000E-01
SP   1    1.000000
   4.83456000E-01    1.00000000E+00   1.00000000E+00
SP   1    1.000000
   1.45585000E-01    1.00000000E+00   1.00000000E+00
SP   1    1.000000
   4.38000000E-02    1.00000000E+00   1.00000000E+00
SP   1    1.000000
   1.31927711E-02    1.00000000E+00   1.00000000E+00
D    1    1.000000
   6.26000000E-01    1.00000000E+00
****
$end

--------------------------------------------------------------
 ----------------------------------------------------------------
             Standard Nuclear Orientation (Angstroms)
    I     Atom           X                Y                Z
 ----------------------------------------------------------------
    1      C      -0.0075418336    -1.7589576307     0.0000000000
    2      H      -2.0976985029    -1.4188067789    -0.0000000000
    3      H      -0.1352742186    -2.8395683814    -0.0000000000
    4      H       0.0405351136     2.0202636900     0.0000000000
    5      C      -1.2206648390     0.3991818408    -0.0000000000
    6      O      -2.2521014059     1.0566372040    -0.0000000000
    7      C       1.2400955179     0.2778918438     0.0000000000
    8      O       2.3376799618     1.0612249299     0.0000000000
    9      N       0.0363458646     1.0085293608     0.0000000000
   10      N      -1.1873830418    -0.9790347032    -0.0000000000
   11      C       1.2228887503    -1.1225809570     0.0000000000
   12      H       2.1564038285    -1.6844587841     0.0000000000
 ----------------------------------------------------------------
 Molecular Point Group                 Cs    NOp =  2
 Largest Abelian Subgroup              Cs    NOp =  2
 Nuclear Repulsion Energy =         352.25219040 hartrees
 There are       29 alpha and       29 beta electrons
 Requested basis set is non-standard
 There are 116 shells and 276 basis functions

 Total QAlloc Memory Limit   2000 MB
 Mega-Array Size       188 MB
 MEM_STATIC part       192 MB

                       Distance Matrix (Angstroms)
             C (  1)   H (  2)   H (  3)   H (  4)   C (  5)   O (  6)
   H (  2)  2.117654
   H (  3)  1.088134  2.422741
   H (  4)  3.779527  4.049599  4.863011
   C (  5)  2.475729  2.018482  3.415783  2.053906
   O (  6)  3.600781  2.480255  4.434115  2.486917  1.223155
   C (  7)  2.388588  3.744283  3.407374  2.115373  2.463748  3.577972
   O (  8)  3.667901  5.081647  4.618624  2.489303  3.619409  4.589784
   N (  9)  2.767835  3.232044  3.851923  1.011743  1.396918  2.288953
   N ( 10)  1.414321  1.010977  2.137409  3.240922  1.378618  2.297300
   C ( 11)  1.385256  3.333774  2.189213  3.357891  2.878666  4.101774
   H ( 12)  2.165228  4.262389  2.566333  4.266365  3.968142  5.191197
             C (  7)   O (  8)   N (  9)   N ( 10)   C ( 11)
   O (  8)  1.348444
   N (  9)  1.408135  2.301937
   N ( 10)  2.733590  4.072926  2.334079
   C ( 11)  1.400579  2.451891  2.439163  2.414543
   H ( 12)  2.165743  2.751661  3.427365  3.417387  1.089567

 A cutoff of  1.0D-08 yielded   5048 shell pairs
 There are     33715 function pairs (     35699 Cartesian)
 Smallest overlap matrix eigenvalue = 2.91E-07

 Q-Chem warning in module stvman/mkSTV.C, line 318:

 Overlap eigenvalue is smaller than square root of threshold
 Use THRESH >= 12 to get rid of this warning

 Linear dependence detected in AO basis
 Tighter screening thresholds may be required for diffuse basis sets
 Use S2THRESH > 14 and THRESH = 14 in case of SCF convergence issues
 Number of orthogonalized atomic orbitals = 274
 Maximum deviation from orthogonality = 8.930E-11

 Scale SEOQF with 1.000000e-01/1.000000e-01/1.000000e-01

 Standard Electronic Orientation quadrupole field applied
 Nucleus-field energy     =     0.0000000101 hartrees
 Guess MOs from core Hamiltonian diagonalization

 -----------------------------------------------------------------------
  General SCF calculation program by
  Eric Jon Sundstrom, Paul Horn, Yuezhi Mao, Dmitri Zuev, Alec White,
  David Stuck, Shaama M.S., Shane Yost, Joonho Lee, David Small,
  Daniel Levine, Susi Lehtola, Hugh Burton, Evgeny Epifanovsky
 -----------------------------------------------------------------------
 Hartree-Fock
 using 4 threads for integral computing
 -------------------------------------------------------
 OpenMP Integral computing Module                
 Release: version 2.0, May 2017, Q-Chem Inc. Pleasanton 
 -------------------------------------------------------
 A restricted SCF calculation will be
 performed using DIIS
 SCF converges when DIIS error is below 1.0e-05
 ---------------------------------------
  Cycle       Energy         DIIS error
 ---------------------------------------
    1    -317.6482158221      1.18e-01  
    2    -297.2830415382      6.07e-02  
    3    -297.9562470701      8.02e-02  
    4    -375.3184036196      4.87e-02  
    5    -409.8715455884      1.71e-02  
    6    -411.7883989351      9.77e-03  
    7    -412.4969732014      2.05e-03  
    8    -412.5305961270      8.04e-04  
    9    -412.5378603449      3.74e-04  
   10    -412.5395261056      1.52e-04  
   11    -412.5399110923      3.63e-05  
   12    -412.5399311236      1.81e-05  
   13    -412.5399374747      9.08e-06  Convergence criterion met
 ---------------------------------------
 SCF time:   CPU 91.19s  wall 24.00s 
 SCF   energy in the final basis set =     -412.5399374747
 Total energy in the final basis set =     -412.5399374747

 --------------------------------------------------------------
             Orbital Energies (a.u.) and Symmetries
 --------------------------------------------------------------

 Alpha MOs, Restricted
 -- Occupied --                  
-20.553 -20.527 -15.666 -15.642 -11.432 -11.398 -11.377 -11.282
  1 A'    2 A'    3 A'    4 A'    5 A'    6 A'    7 A'    8 A'                 
 -1.439  -1.343  -1.305  -1.234  -1.106  -0.952  -0.899  -0.817
  9 A'   10 A'   11 A'   12 A'   13 A'   14 A'   15 A'   16 A'                 
 -0.771  -0.731  -0.675  -0.669  -0.661  -0.617  -0.577  -0.548
 17 A'   18 A'   19 A'    1 A"   20 A'   21 A'   22 A'    2 A"                 
 -0.528  -0.485  -0.435  -0.423  -0.375
  3 A"   23 A'   24 A'    4 A"    5 A"                                         
 -- Virtual --                   
  0.002   0.017   0.018   0.023   0.031   0.033   0.035   0.035
 25 A'   26 A'    6 A"   27 A'   28 A'   29 A'   30 A'    7 A"                 
  0.039   0.045   0.046   0.047   0.050   0.053   0.054   0.055
  8 A"   31 A'   32 A'    9 A"   33 A'   34 A'   10 A"   35 A'                 
  0.067   0.071   0.072   0.085   0.086   0.088   0.094   0.095
 36 A'   11 A"   37 A'   38 A'   12 A"   39 A'   40 A'   41 A'                 
  0.113   0.116   0.117   0.120   0.126   0.130   0.134   0.137
 13 A"   42 A'   14 A"   43 A'   44 A'   45 A'   46 A'   47 A'                 
  0.139   0.148   0.164   0.165   0.166   0.179   0.186   0.192
 48 A'   15 A"   49 A'   50 A'   16 A"   51 A'   17 A"   52 A'                 
  0.202   0.205   0.223   0.224   0.232   0.241   0.242   0.257
 53 A'   18 A"   54 A'   55 A'   56 A'   19 A"   57 A'   58 A'                 
  0.267   0.271   0.275   0.280   0.282   0.287   0.297   0.328
 59 A'   60 A'   20 A"   61 A'   21 A"   62 A'   63 A'   22 A"                 
  0.328   0.344   0.360   0.368   0.381   0.398   0.407   0.408
 64 A'   65 A'   66 A'   67 A'   68 A'   69 A'   23 A"   70 A'                 
  0.417   0.426   0.432   0.445   0.451   0.463   0.478   0.480
 71 A'   24 A"   72 A'   73 A'   74 A'   75 A'   76 A'   77 A'                 
  0.498   0.514   0.539   0.544   0.605   0.631   0.640   0.674
 78 A'   79 A'   80 A'   81 A'   82 A'   83 A'   84 A'   85 A'                 
  0.717   0.731   0.741   0.758   0.766   0.785   0.804   0.825
 86 A'   25 A"   87 A'   88 A'   26 A"   27 A"   89 A'   28 A"                 
  0.862   0.879   0.925   0.946   0.956   0.958   0.987   1.000
 90 A'   91 A'   92 A'   93 A'   94 A'   95 A'   96 A'   97 A'                 
  1.016   1.034   1.044   1.087   1.090   1.116   1.150   1.206
 98 A'   29 A"   99 A'   30 A"  100 A'  101 A'  102 A'   31 A"                 
  1.232   1.234   1.263   1.273   1.351   1.353   1.387   1.399
103 A'   32 A"  104 A'  105 A'   33 A"  106 A'   34 A"   35 A"                 
  1.408   1.440   1.465   1.480   1.525   1.526   1.538   1.559
 36 A"  107 A'  108 A'   37 A"   38 A"  109 A'  110 A'  111 A'                 
  1.604   1.733   1.756   1.778   1.797   1.865   1.865   1.889
112 A'  113 A'  114 A'  115 A'   39 A"  116 A'   40 A"  117 A'                 
  1.921   1.926   1.957   1.996   1.999   2.051   2.098   2.117
 41 A"  118 A'  119 A'   42 A"  120 A'  121 A'  122 A'  123 A'                 
  2.167   2.211   2.225   2.272   2.294   2.321   2.348   2.471
124 A'  125 A'   43 A"  126 A'  127 A'   44 A"  128 A'  129 A'                 
  2.540   2.584   2.633   2.652   2.709   2.768   2.809   2.817
 45 A"  130 A'   46 A"  131 A'   47 A"  132 A'   48 A"  133 A'                 
  2.924   2.948   2.980   3.001   3.044   3.081   3.134   3.146
134 A'  135 A'  136 A'  137 A'  138 A'   49 A"   50 A"  139 A'                 
  3.161   3.168   3.240   3.266   3.291   3.295   3.326   3.334
140 A'   51 A"  141 A'   52 A"   53 A"  142 A'  143 A'  144 A'                 
  3.334   3.461   3.572   3.641   3.657   3.744   3.777   3.791
 54 A"  145 A'  146 A'   55 A"  147 A'   56 A"  148 A'  149 A'                 
  3.878   3.942   3.962   3.983   4.079   4.232   4.292   4.345
150 A'  151 A'  152 A'  153 A'  154 A'  155 A'   57 A"   58 A"                 
  4.398   4.447   4.603   4.985   5.112   5.290   5.431   5.526
156 A'  157 A'  158 A'  159 A'  160 A'  161 A'  162 A'  163 A'                 
  5.620   5.641   5.657   5.692   5.766   5.821   5.866   6.360
 59 A"   60 A"  164 A'  165 A'  166 A'  167 A'  168 A'  169 A'                 
  6.433   7.635   7.692   9.759   9.898  20.620  20.682  20.694
170 A'  171 A'  172 A'  173 A'  174 A'  175 A'  176 A'  177 A'                 
 20.871  30.164  30.204  40.809  40.903  80.171  80.226  80.229
178 A'  179 A'  180 A'  181 A'  182 A'  183 A'  184 A'  185 A'                 
 80.400 116.284 116.321 159.175 159.245 321.996 322.042 322.050
186 A'  187 A'  188 A'  189 A'  190 A'  191 A'  192 A'  193 A'                 
322.206 460.385 460.419 631.888 631.9421431.5501431.5921431.603
194 A'  195 A'  196 A'  197 A'  198 A'  199 A'  200 A'  201 A'                 
*******2012.8602012.8932759.2962759.3378749.7718749.8128749.824
202 A'  203 A'  204 A'  205 A'  206 A'  207 A'  208 A'  209 A'                 
***************************************
210 A'  211 A'  212 A'  213 A'  214 A'                                         

 Beta MOs, Restricted
 -- Occupied --                  
-20.553 -20.527 -15.666 -15.642 -11.432 -11.398 -11.377 -11.282
  1 A'    2 A'    3 A'    4 A'    5 A'    6 A'    7 A'    8 A'                 
 -1.439  -1.343  -1.305  -1.234  -1.106  -0.952  -0.899  -0.817
  9 A'   10 A'   11 A'   12 A'   13 A'   14 A'   15 A'   16 A'                 
 -0.771  -0.731  -0.675  -0.669  -0.661  -0.617  -0.577  -0.548
 17 A'   18 A'   19 A'    1 A"   20 A'   21 A'   22 A'    2 A"                 
 -0.528  -0.485  -0.435  -0.423  -0.375
  3 A"   23 A'   24 A'    4 A"    5 A"                                         
 -- Virtual --                   
  0.002   0.017   0.018   0.023   0.031   0.033   0.035   0.035
 25 A'   26 A'    6 A"   27 A'   28 A'   29 A'   30 A'    7 A"                 
  0.039   0.045   0.046   0.047   0.050   0.053   0.054   0.055
  8 A"   31 A'   32 A'    9 A"   33 A'   34 A'   10 A"   35 A'                 
  0.067   0.071   0.072   0.085   0.086   0.088   0.094   0.095
 36 A'   11 A"   37 A'   38 A'   12 A"   39 A'   40 A'   41 A'                 
  0.113   0.116   0.117   0.120   0.126   0.130   0.134   0.137
 13 A"   42 A'   14 A"   43 A'   44 A'   45 A'   46 A'   47 A'                 
  0.139   0.148   0.164   0.165   0.166   0.179   0.186   0.192
 48 A'   15 A"   49 A'   50 A'   16 A"   51 A'   17 A"   52 A'                 
  0.202   0.205   0.223   0.224   0.232   0.241   0.242   0.257
 53 A'   18 A"   54 A'   55 A'   56 A'   19 A"   57 A'   58 A'                 
  0.267   0.271   0.275   0.280   0.282   0.287   0.297   0.328
 59 A'   60 A'   20 A"   61 A'   21 A"   62 A'   63 A'   22 A"                 
  0.328   0.344   0.360   0.368   0.381   0.398   0.407   0.408
 64 A'   65 A'   66 A'   67 A'   68 A'   69 A'   23 A"   70 A'                 
  0.417   0.426   0.432   0.445   0.451   0.463   0.478   0.480
 71 A'   24 A"   72 A'   73 A'   74 A'   75 A'   76 A'   77 A'                 
  0.498   0.514   0.539   0.544   0.605   0.631   0.640   0.674
 78 A'   79 A'   80 A'   81 A'   82 A'   83 A'   84 A'   85 A'                 
  0.717   0.731   0.741   0.758   0.766   0.785   0.804   0.825
 86 A'   25 A"   87 A'   88 A'   26 A"   27 A"   89 A'   28 A"                 
  0.862   0.879   0.925   0.946   0.956   0.958   0.987   1.000
 90 A'   91 A'   92 A'   93 A'   94 A'   95 A'   96 A'   97 A'                 
  1.016   1.034   1.044   1.087   1.090   1.116   1.150   1.206
 98 A'   29 A"   99 A'   30 A"  100 A'  101 A'  102 A'   31 A"                 
  1.232   1.234   1.263   1.273   1.351   1.353   1.387   1.399
103 A'   32 A"  104 A'  105 A'   33 A"  106 A'   34 A"   35 A"                 
  1.408   1.440   1.465   1.480   1.525   1.526   1.538   1.559
 36 A"  107 A'  108 A'   37 A"   38 A"  109 A'  110 A'  111 A'                 
  1.604   1.733   1.756   1.778   1.797   1.865   1.865   1.889
112 A'  113 A'  114 A'  115 A'   39 A"  116 A'   40 A"  117 A'                 
  1.921   1.926   1.957   1.996   1.999   2.051   2.098   2.117
 41 A"  118 A'  119 A'   42 A"  120 A'  121 A'  122 A'  123 A'                 
  2.167   2.211   2.225   2.272   2.294   2.321   2.348   2.471
124 A'  125 A'   43 A"  126 A'  127 A'   44 A"  128 A'  129 A'                 
  2.540   2.584   2.633   2.652   2.709   2.768   2.809   2.817
 45 A"  130 A'   46 A"  131 A'   47 A"  132 A'   48 A"  133 A'                 
  2.924   2.948   2.980   3.001   3.044   3.081   3.134   3.146
134 A'  135 A'  136 A'  137 A'  138 A'   49 A"   50 A"  139 A'                 
  3.161   3.168   3.240   3.266   3.291   3.295   3.326   3.334
140 A'   51 A"  141 A'   52 A"   53 A"  142 A'  143 A'  144 A'                 
  3.334   3.461   3.572   3.641   3.657   3.744   3.777   3.791
 54 A"  145 A'  146 A'   55 A"  147 A'   56 A"  148 A'  149 A'                 
  3.878   3.942   3.962   3.983   4.079   4.232   4.292   4.345
150 A'  151 A'  152 A'  153 A'  154 A'  155 A'   57 A"   58 A"                 
  4.398   4.447   4.603   4.985   5.112   5.290   5.431   5.526
156 A'  157 A'  158 A'  159 A'  160 A'  161 A'  162 A'  163 A'                 
  5.620   5.641   5.657   5.692   5.766   5.821   5.866   6.360
 59 A"   60 A"  164 A'  165 A'  166 A'  167 A'  168 A'  169 A'                 
  6.433   7.635   7.692   9.759   9.898  20.620  20.682  20.694
170 A'  171 A'  172 A'  173 A'  174 A'  175 A'  176 A'  177 A'                 
 20.871  30.164  30.204  40.809  40.903  80.171  80.226  80.229
178 A'  179 A'  180 A'  181 A'  182 A'  183 A'  184 A'  185 A'                 
 80.400 116.284 116.321 159.175 159.245 321.996 322.042 322.050
186 A'  187 A'  188 A'  189 A'  190 A'  191 A'  192 A'  193 A'                 
322.206 460.385 460.419 631.888 631.9421431.5501431.5921431.603
194 A'  195 A'  196 A'  197 A'  198 A'  199 A'  200 A'  201 A'                 
*******2012.8602012.8932759.2962759.3378749.7718749.8128749.824
202 A'  203 A'  204 A'  205 A'  206 A'  207 A'  208 A'  209 A'                 
***************************************
210 A'  211 A'  212 A'  213 A'  214 A'                                         
 --------------------------------------------------------------

          Ground-State Mulliken Net Atomic Charges

     Atom                 Charge (a.u.)
  ----------------------------------------
      1 C                     0.020931
      2 H                     0.360685
      3 H                     0.186087
      4 H                     0.399964
      5 C                     0.252045
      6 O                    -0.077333
      7 C                    -0.087856
      8 O                    -0.211587
      9 N                    -0.541634
     10 N                    -0.389764
     11 C                    -0.181362
     12 H                     0.269825
  ----------------------------------------
  Sum of atomic charges =     0.000000

 -----------------------------------------------------------------
                    Cartesian Multipole Moments
 -----------------------------------------------------------------
    Charge (ESU x 10^10)
                 0.0000
    Dipole Moment (Debye)
         X      -2.2906      Y      -6.1152      Z       0.0000
       Tot       6.5301
    Quadrupole Moments (Debye-Ang)
        XX     -62.9685     XY       0.7806     YY     -37.5600
        XZ       0.0000     YZ       0.0000     ZZ     -47.4112
    Octopole Moments (Debye-Ang^2)
       XXX     -19.2092    XXY     -39.7227    XYY      -6.6083
       YYY     -13.2430    XXZ      -0.0000    XYZ      -0.0000
       YYZ      -0.0000    XZZ      -2.9720    YZZ       3.7215
       ZZZ       0.0000
    Hexadecapole Moments (Debye-Ang^3)
      XXXX    -752.5396   XXXY       2.9036   XXYY    -183.8843
      XYYY       8.8042   YYYY    -307.2951   XXXZ       0.0000
      XXYZ      -0.0000   XYYZ      -0.0000   YYYZ       0.0000
      XXZZ    -117.9723   XYZZ       1.6231   YYZZ     -78.8009
      XZZZ      -0.0000   YZZZ       0.0000   ZZZZ     -47.9436
 -----------------------------------------------------------------
Archival summary:
1\1\n-62-24-2\SP\HF\BasisUnspecified\2244\malop\WedJun1218:30:432019WedJun1218:30:432019\0\\#,HF,BasisUnspecified,\\0,1\N\H,1,1.01174\C,1,1.39692,2,116.099\O,3,1.22316,1,121.624,2,0,0\N,3,1.37862,1,114.479,2,180,0\H,5,1.01098,3,114.402,1,-180,0\C,1,1.40814,2,121.019,3,-180,0\O,7,1.34844,1,113.229,2,-0,0\C,7,1.40058,1,120.552,2,180,0\H,9,1.08957,7,120.34,1,180,0\C,9,1.38526,7,118.052,1,0,0\H,11,1.08813,9,124.089,7,180,0\\HF=-412.539937\\@

 Total job time:  24.77s(wall), 91.58s(cpu) 
 Wed Jun 12 18:30:43 2019

        *************************************************************
        *                                                           *
        *  Thank you very much for using Q-Chem.  Have a nice day.  *
        *                                                           *
        *************************************************************


 
User input: 2 of 2 
 
                  Welcome to Q-Chem
     A Quantum Leap Into The Future Of Chemistry


 Q-Chem 5.2 (devel), Q-Chem, Inc., Pleasanton, CA (2019)

 Yihan Shao,  Zhengting Gan,  E. Epifanovsky,  A. T. B. Gilbert,  M. Wormit,  
 J. Kussmann,  A. W. Lange,  A. Behn,  Jia Deng,  Xintian Feng,  D. Ghosh,  
 M. Goldey,  P. R. Horn,  L. D. Jacobson,  I. Kaliman,  T. Kus,  A. Landau,  
 Jie Liu,  E. I. Proynov,  R. M. Richard,  R. P. Steele,  E. J. Sundstrom,  
 H. L. Woodcock III,  P. M. Zimmerman,  D. Zuev,  B. Albrecht,  E. Alguire,  
 S. A. Baeppler,  D. Barton,  Z. Benda,  Y. A. Bernard,  E. J. Berquist,  
 K. B. Bravaya,  H. Burton,  D. Casanova,  Chun-Min Chang,  Yunqing Chen,  
 A. Chien,  K. D. Closser,  M. P. Coons,  S. Coriani,  S. Dasgupta,  
 A. L. Dempwolff,  M. Diedenhofen,  Hainam Do,  R. G. Edgar,  Po-Tung Fang,  
 S. Faraji,  S. Fatehi,  Qingguo Feng,  K. D. Fenk,  J. Fosso-Tande,  
 J. Gayvert,  Qinghui Ge,  A. Ghysels,  G. Gidofalvi,  J. Gomes,  
 J. Gonthier,  A. Gunina,  D. Hait,  M. W. D. Hanson-Heine,  
 P. H. P. Harbach,  A. W. Hauser,  M. F. Herbst,  J. E. Herr,  
 E. G. Hohenstein,  Z. C. Holden,  Kerwin Hui,  B. C. Huynh,  T.-C. Jagau,  
 Hyunjun Ji,  B. Kaduk,  K. Khistyaev,  Jaehoon Kim,  P. Klunzinger,  K. Koh,  
 D. Kosenkov,  L. Koulias,  T. Kowalczyk,  C. M. Krauter,  A. Kunitsa,  
 Ka Un Lao,  A. Laurent,  K. V. Lawler,  Joonho Lee,  D. Lefrancois,  
 S. Lehtola,  D. S. Levine,  Yi-Pei Li,  You-Sheng Lin,  Fenglai Liu,  
 E. Livshits,  A. Luenser,  P. Manohar,  E. Mansoor,  S. F. Manzer,  
 Shan-Ping Mao,  Yuezhi Mao,  N. Mardirossian,  A. V. Marenich,  
 T. Markovich,  L. A. Martinez-Martinez,  S. A. Maurer,  N. J. Mayhall,  
 S. C. McKenzie,  J.-M. Mewes,  P. Morgante,  A. F. Morrison,  
 J. W. Mullinax,  K. Nanda,  T. S. Nguyen-Beck,  R. Olivares-Amaya,  
 J. A. Parkhill,  Zheng Pei,  T. M. Perrine,  F. Plasser,  P. Pokhilko,  
 S. Prager,  A. Prociuk,  E. Ramos,  D. R. Rehn,  F. Rob,  M. Scheurer,  
 M. Schneider,  N. Sergueev,  S. M. Sharada,  S. Sharma,  D. W. Small,  
 T. Stauch,  T. Stein,  Yu-Chuan Su,  A. J. W. Thom,  A. Tkatchenko,  
 T. Tsuchimochi,  N. M. Tubman,  L. Vogt,  M. L. Vidal,  O. Vydrov,  
 M. A. Watson,  J. Wenzel,  M. de Wergifosse,  T. A. Wesolowski,  A. White,  
 J. Witte,  A. Yamada,  Jun Yang,  K. Yao,  S. Yeganeh,  S. R. Yost,  
 Zhi-Qiang You,  A. Zech,  Igor Ying Zhang,  Xing Zhang,  Yan Zhao,  
 Ying Zhu,  B. R. Brooks,  G. K. L. Chan,  C. J. Cramer,  M. S. Gordon,  
 W. J. Hehre,  A. Klamt,  M. W. Schmidt,  C. D. Sherrill,  D. G. Truhlar,  
 A. Aspuru-Guzik,  R. Baer,  A. T. Bell,  N. A. Besley,  Jeng-Da Chai,  
 A. E. DePrince, III,  R. A. DiStasio Jr.,  A. Dreuw,  B. D. Dunietz,  
 T. R. Furlani,  Chao-Ping Hsu,  Yousung Jung,  Jing Kong,  D. S. Lambrecht,  
 WanZhen Liang,  C. Ochsenfeld,  V. A. Rassolov,  L. V. Slipchenko,  
 J. E. Subotnik,  T. Van Voorhis,  J. M. Herbert,  A. I. Krylov,  
 P. M. W. Gill,  M. Head-Gordon

 Contributors to earlier versions of Q-Chem not listed above: 
 R. D. Adamson,  B. Austin,  J. Baker,  G. J. O. Beran,  K. Brandhorst,  
 S. T. Brown,  E. F. C. Byrd,  A. K. Chakraborty,  C.-L. Cheng,  
 Siu Hung Chien,  D. M. Chipman,  D. L. Crittenden,  H. Dachsel,  
 R. J. Doerksen,  A. D. Dutoi,  L. Fusti-Molnar,  W. A. Goddard III,  
 A. Golubeva-Zadorozhnaya,  S. R. Gwaltney,  G. Hawkins,  A. Heyden,  
 S. Hirata,  G. Kedziora,  F. J. Keil,  C. Kelley,  Jihan Kim,  R. A. King,  
 R. Z. Khaliullin,  P. P. Korambath,  W. Kurlancheek,  A. M. Lee,  M. S. Lee,  
 S. V. Levchenko,  Ching Yeh Lin,  D. Liotard,  R. C. Lochan,  I. Lotan,  
 P. E. Maslen,  N. Nair,  D. P. O'Neill,  D. Neuhauser,  E. Neuscamman,  
 C. M. Oana,  R. Olson,  B. Peters,  R. Peverati,  P. A. Pieniazek,  
 Y. M. Rhee,  J. Ritchie,  M. A. Rohrdanz,  E. Rosta,  N. J. Russ,  
 H. F. Schaefer III,  N. E. Schultz,  N. Shenvi,  A. C. Simmonett,  A. Sodt,  
 D. Stuck,  K. S. Thanthiriwatte,  V. Vanovschi,  Tao Wang,  A. Warshel,  
 C. F. Williams,  Q. Wu,  X. Xu,  W. Zhang

 Please cite Q-Chem as follows:
 Y. Shao et al., Mol. Phys. 113, 184-215 (2015)
 DOI: 10.1080/00268976.2014.952696

 Q-Chem 5.2.0 for Intel X86 EM64T Linux

 Parts of Q-Chem use Armadillo 8.300.2 (Tropical Shenanigans).
 http://arma.sourceforge.net/

 Q-Chem begins on Wed Jun 12 18:30:43 2019  

n-62-24-2
Host: 0

     Scratch files written to /work1/malop/qc_8407565.hnode2/qchem7692//
NAlpha2: 60
NElect   58
Mult     3

Checking the input file for inconsistencies... 	...done.

--------------------------------------------------------------
User input:
--------------------------------------------------------------

$molecule
0 3
C        -0.0042112405   -1.7549930536    0.0000000000
H        -2.0949460216   -1.4184138214    0.0000000000
H        -0.1300971688   -2.8358204634    0.0000000000
H         0.0374086733    2.0243048927    0.0000000000
C        -1.2210197500    0.4010705948    0.0000000000
O        -2.2535781024    1.0567627444    0.0000000000
C         1.2399442445    0.2839850904    0.0000000000
O         2.3361887279    1.0691923037    0.0000000000
N         0.0349480223    1.0125648826    0.0000000000
N        -1.1853832587   -0.9770870742    0.0000000000
C         1.2251302704   -1.1165150648    0.0000000000
H         2.1596039787   -1.6767971209    0.0000000000
$end

$rem
   JOB_TYPE  =  SP
   BASIS  = general
   print_general_basis = true
   METHOD  =  EOM-CCSD
   SCF_GUESS read
   mom_start = 1
   CVS_IP_STATES = [4,0]
   !eom_davidson_convergence = 4
   cvs_eom_shift = 19500
   n_frozen_core = 2
   cc_trans_prop = true
   cc_memory = 40000
   cc_do_dyson = true
   MOLDEN_FORMAT = TRUE
$end

$basis
H    0
6-311(2+,+)G**
****
O    0
S    1    1.000000
   8.58850000E+03    1.89515000E-03
S    1    1.000000
   1.29723000E+03    1.43859000E-02
S    1    1.000000
   2.99296000E+02    7.07320000E-02
S    1    1.000000
   8.73771000E+01    2.40001000E-01
S    1    1.000000
   2.56789000E+01    5.94797000E-01
S    1    1.000000
   3.74004000E+00    2.80802000E-01
SP   3    1.000000
   4.21175000E+01    1.13889000E-01   3.65114000E-02
   9.62837000E+00    9.20811000E-01   2.37153000E-01
   2.85332000E+00   -3.27447000E-03   8.19702000E-01
SP   1    1.000000
   9.05661000E-01    1.00000000E+00   1.00000000E+00
SP   1    1.000000
   2.55611000E-01    1.00000000E+00   1.00000000E+00
SP   1    1.000000
   8.45000000E-02    1.00000000E+00   1.00000000E+00
SP   1    1.000000
   2.54518072E-02    1.00000000E+00   1.00000000E+00
D    1    1.000000
   1.29200000E+00    1.00000000E+00
****
N    0
S    1    1.000000
   6.29348000E+03    1.96979000E-03
S    1    1.000000
   9.49044000E+02    1.49613000E-02
S    1    1.000000
   2.18776000E+02    7.35006000E-02
S    1    1.000000
   6.36916000E+01    2.48937000E-01
S    1    1.000000
   1.88282000E+01    6.02460000E-01
S    1    1.000000
   2.72023000E+00    2.56202000E-01
SP   3    1.000000
   3.06331000E+01    1.11906000E-01   3.83119000E-02
   7.02614000E+00    9.21666000E-01   2.37403000E-01
   2.11205000E+00   -2.56919000E-03   8.17592000E-01
SP   1    1.000000
   6.84009000E-01    1.00000000E+00   1.00000000E+00
SP   1    1.000000
   2.00878000E-01    1.00000000E+00   1.00000000E+00
SP   1    1.000000
   6.39000000E-02    1.00000000E+00   1.00000000E+00
SP   1    1.000000
   1.92469880E-02    1.00000000E+00   1.00000000E+00
D    1    1.000000
   9.13000000E-01    1.00000000E+00
****
C    0
S    1    1.000000
   4.56324000E+03    1.96665000E-03
S    1    1.000000
   6.82024000E+02    1.52306000E-02
S    1    1.000000
   1.54973000E+02    7.61269000E-02
S    1    1.000000
   4.44553000E+01    2.60801000E-01
S    1    1.000000
   1.30290000E+01    6.16462000E-01
S    1    1.000000
   1.82773000E+00    2.21006000E-01
SP   3    1.000000
   2.09642000E+01    1.14660000E-01   4.02487000E-02
   4.80331000E+00    9.19999000E-01   2.37594000E-01
   1.45933000E+00   -3.03068000E-03   8.15854000E-01
SP   1    1.000000
   4.83456000E-01    1.00000000E+00   1.00000000E+00
SP   1    1.000000
   1.45585000E-01    1.00000000E+00   1.00000000E+00
SP   1    1.000000
   4.38000000E-02    1.00000000E+00   1.00000000E+00
SP   1    1.000000
   1.31927711E-02    1.00000000E+00   1.00000000E+00
D    1    1.000000
   6.26000000E-01    1.00000000E+00
****
$end

$occupied
1:30
1:26 28 29
$end

--------------------------------------------------------------
 ----------------------------------------------------------------
             Standard Nuclear Orientation (Angstroms)
    I     Atom           X                Y                Z
 ----------------------------------------------------------------
    1      C      -0.0075418336    -1.7589576307     0.0000000000
    2      H      -2.0976985029    -1.4188067789    -0.0000000000
    3      H      -0.1352742186    -2.8395683814    -0.0000000000
    4      H       0.0405351136     2.0202636900     0.0000000000
    5      C      -1.2206648390     0.3991818408    -0.0000000000
    6      O      -2.2521014059     1.0566372040    -0.0000000000
    7      C       1.2400955179     0.2778918438     0.0000000000
    8      O       2.3376799618     1.0612249299     0.0000000000
    9      N       0.0363458646     1.0085293608     0.0000000000
   10      N      -1.1873830418    -0.9790347032    -0.0000000000
   11      C       1.2228887503    -1.1225809570     0.0000000000
   12      H       2.1564038285    -1.6844587841     0.0000000000
 ----------------------------------------------------------------
 Molecular Point Group                 Cs    NOp =  2
 Largest Abelian Subgroup              Cs    NOp =  2
 Nuclear Repulsion Energy =         352.25219040 hartrees
 There are       30 alpha and       28 beta electrons
 Requested basis set is non-standard
Basis set in general basis input format:
-----------------------------------------------------------------------
$basis
C    0
S    1    1.000000
   4.56324000E+03    1.96665000E-03 
S    1    1.000000
   6.82024000E+02    1.52306000E-02 
S    1    1.000000
   1.54973000E+02    7.61269000E-02 
S    1    1.000000
   4.44553000E+01    2.60801000E-01 
S    1    1.000000
   1.30290000E+01    6.16462000E-01 
S    1    1.000000
   1.82773000E+00    2.21006000E-01 
SP   3    1.000000
   2.09642000E+01    1.14660000E-01   4.02487000E-02 
   4.80331000E+00    9.19999000E-01   2.37594000E-01 
   1.45933000E+00   -3.03068000E-03   8.15854000E-01 
SP   1    1.000000
   4.83456000E-01    1.00000000E+00   1.00000000E+00 
SP   1    1.000000
   1.45585000E-01    1.00000000E+00   1.00000000E+00 
SP   1    1.000000
   4.38000000E-02    1.00000000E+00   1.00000000E+00 
SP   1    1.000000
   1.31927711E-02    1.00000000E+00   1.00000000E+00 
D    1    1.000000
   6.26000000E-01    1.00000000E+00 
****
H    0
S    3    1.000000
   3.38650000E+01    2.54938000E-02 
   5.09479000E+00    1.90373000E-01 
   1.15879000E+00    8.52161000E-01 
S    1    1.000000
   3.25840000E-01    1.00000000E+00 
S    1    1.000000
   1.02741000E-01    1.00000000E+00 
S    1    1.000000
   3.60000000E-02    1.00000000E+00 
P    1    1.000000
   7.50000000E-01    1.00000000E+00 
****
H    0
S    3    1.000000
   3.38650000E+01    2.54938000E-02 
   5.09479000E+00    1.90373000E-01 
   1.15879000E+00    8.52161000E-01 
S    1    1.000000
   3.25840000E-01    1.00000000E+00 
S    1    1.000000
   1.02741000E-01    1.00000000E+00 
S    1    1.000000
   3.60000000E-02    1.00000000E+00 
P    1    1.000000
   7.50000000E-01    1.00000000E+00 
****
H    0
S    3    1.000000
   3.38650000E+01    2.54938000E-02 
   5.09479000E+00    1.90373000E-01 
   1.15879000E+00    8.52161000E-01 
S    1    1.000000
   3.25840000E-01    1.00000000E+00 
S    1    1.000000
   1.02741000E-01    1.00000000E+00 
S    1    1.000000
   3.60000000E-02    1.00000000E+00 
P    1    1.000000
   7.50000000E-01    1.00000000E+00 
****
C    0
S    1    1.000000
   4.56324000E+03    1.96665000E-03 
S    1    1.000000
   6.82024000E+02    1.52306000E-02 
S    1    1.000000
   1.54973000E+02    7.61269000E-02 
S    1    1.000000
   4.44553000E+01    2.60801000E-01 
S    1    1.000000
   1.30290000E+01    6.16462000E-01 
S    1    1.000000
   1.82773000E+00    2.21006000E-01 
SP   3    1.000000
   2.09642000E+01    1.14660000E-01   4.02487000E-02 
   4.80331000E+00    9.19999000E-01   2.37594000E-01 
   1.45933000E+00   -3.03068000E-03   8.15854000E-01 
SP   1    1.000000
   4.83456000E-01    1.00000000E+00   1.00000000E+00 
SP   1    1.000000
   1.45585000E-01    1.00000000E+00   1.00000000E+00 
SP   1    1.000000
   4.38000000E-02    1.00000000E+00   1.00000000E+00 
SP   1    1.000000
   1.31927711E-02    1.00000000E+00   1.00000000E+00 
D    1    1.000000
   6.26000000E-01    1.00000000E+00 
****
O    0
S    1    1.000000
   8.58850000E+03    1.89515000E-03 
S    1    1.000000
   1.29723000E+03    1.43859000E-02 
S    1    1.000000
   2.99296000E+02    7.07320000E-02 
S    1    1.000000
   8.73771000E+01    2.40001000E-01 
S    1    1.000000
   2.56789000E+01    5.94797000E-01 
S    1    1.000000
   3.74004000E+00    2.80802000E-01 
SP   3    1.000000
   4.21175000E+01    1.13889000E-01   3.65114000E-02 
   9.62837000E+00    9.20811000E-01   2.37153000E-01 
   2.85332000E+00   -3.27447000E-03   8.19702000E-01 
SP   1    1.000000
   9.05661000E-01    1.00000000E+00   1.00000000E+00 
SP   1    1.000000
   2.55611000E-01    1.00000000E+00   1.00000000E+00 
SP   1    1.000000
   8.45000000E-02    1.00000000E+00   1.00000000E+00 
SP   1    1.000000
   2.54518072E-02    1.00000000E+00   1.00000000E+00 
D    1    1.000000
   1.29200000E+00    1.00000000E+00 
****
C    0
S    1    1.000000
   4.56324000E+03    1.96665000E-03 
S    1    1.000000
   6.82024000E+02    1.52306000E-02 
S    1    1.000000
   1.54973000E+02    7.61269000E-02 
S    1    1.000000
   4.44553000E+01    2.60801000E-01 
S    1    1.000000
   1.30290000E+01    6.16462000E-01 
S    1    1.000000
   1.82773000E+00    2.21006000E-01 
SP   3    1.000000
   2.09642000E+01    1.14660000E-01   4.02487000E-02 
   4.80331000E+00    9.19999000E-01   2.37594000E-01 
   1.45933000E+00   -3.03068000E-03   8.15854000E-01 
SP   1    1.000000
   4.83456000E-01    1.00000000E+00   1.00000000E+00 
SP   1    1.000000
   1.45585000E-01    1.00000000E+00   1.00000000E+00 
SP   1    1.000000
   4.38000000E-02    1.00000000E+00   1.00000000E+00 
SP   1    1.000000
   1.31927711E-02    1.00000000E+00   1.00000000E+00 
D    1    1.000000
   6.26000000E-01    1.00000000E+00 
****
O    0
S    1    1.000000
   8.58850000E+03    1.89515000E-03 
S    1    1.000000
   1.29723000E+03    1.43859000E-02 
S    1    1.000000
   2.99296000E+02    7.07320000E-02 
S    1    1.000000
   8.73771000E+01    2.40001000E-01 
S    1    1.000000
   2.56789000E+01    5.94797000E-01 
S    1    1.000000
   3.74004000E+00    2.80802000E-01 
SP   3    1.000000
   4.21175000E+01    1.13889000E-01   3.65114000E-02 
   9.62837000E+00    9.20811000E-01   2.37153000E-01 
   2.85332000E+00   -3.27447000E-03   8.19702000E-01 
SP   1    1.000000
   9.05661000E-01    1.00000000E+00   1.00000000E+00 
SP   1    1.000000
   2.55611000E-01    1.00000000E+00   1.00000000E+00 
SP   1    1.000000
   8.45000000E-02    1.00000000E+00   1.00000000E+00 
SP   1    1.000000
   2.54518072E-02    1.00000000E+00   1.00000000E+00 
D    1    1.000000
   1.29200000E+00    1.00000000E+00 
****
N    0
S    1    1.000000
   6.29348000E+03    1.96979000E-03 
S    1    1.000000
   9.49044000E+02    1.49613000E-02 
S    1    1.000000
   2.18776000E+02    7.35006000E-02 
S    1    1.000000
   6.36916000E+01    2.48937000E-01 
S    1    1.000000
   1.88282000E+01    6.02460000E-01 
S    1    1.000000
   2.72023000E+00    2.56202000E-01 
SP   3    1.000000
   3.06331000E+01    1.11906000E-01   3.83119000E-02 
   7.02614000E+00    9.21666000E-01   2.37403000E-01 
   2.11205000E+00   -2.56919000E-03   8.17592000E-01 
SP   1    1.000000
   6.84009000E-01    1.00000000E+00   1.00000000E+00 
SP   1    1.000000
   2.00878000E-01    1.00000000E+00   1.00000000E+00 
SP   1    1.000000
   6.39000000E-02    1.00000000E+00   1.00000000E+00 
SP   1    1.000000
   1.92469880E-02    1.00000000E+00   1.00000000E+00 
D    1    1.000000
   9.13000000E-01    1.00000000E+00 
****
N    0
S    1    1.000000
   6.29348000E+03    1.96979000E-03 
S    1    1.000000
   9.49044000E+02    1.49613000E-02 
S    1    1.000000
   2.18776000E+02    7.35006000E-02 
S    1    1.000000
   6.36916000E+01    2.48937000E-01 
S    1    1.000000
   1.88282000E+01    6.02460000E-01 
S    1    1.000000
   2.72023000E+00    2.56202000E-01 
SP   3    1.000000
   3.06331000E+01    1.11906000E-01   3.83119000E-02 
   7.02614000E+00    9.21666000E-01   2.37403000E-01 
   2.11205000E+00   -2.56919000E-03   8.17592000E-01 
SP   1    1.000000
   6.84009000E-01    1.00000000E+00   1.00000000E+00 
SP   1    1.000000
   2.00878000E-01    1.00000000E+00   1.00000000E+00 
SP   1    1.000000
   6.39000000E-02    1.00000000E+00   1.00000000E+00 
SP   1    1.000000
   1.92469880E-02    1.00000000E+00   1.00000000E+00 
D    1    1.000000
   9.13000000E-01    1.00000000E+00 
****
C    0
S    1    1.000000
   4.56324000E+03    1.96665000E-03 
S    1    1.000000
   6.82024000E+02    1.52306000E-02 
S    1    1.000000
   1.54973000E+02    7.61269000E-02 
S    1    1.000000
   4.44553000E+01    2.60801000E-01 
S    1    1.000000
   1.30290000E+01    6.16462000E-01 
S    1    1.000000
   1.82773000E+00    2.21006000E-01 
SP   3    1.000000
   2.09642000E+01    1.14660000E-01   4.02487000E-02 
   4.80331000E+00    9.19999000E-01   2.37594000E-01 
   1.45933000E+00   -3.03068000E-03   8.15854000E-01 
SP   1    1.000000
   4.83456000E-01    1.00000000E+00   1.00000000E+00 
SP   1    1.000000
   1.45585000E-01    1.00000000E+00   1.00000000E+00 
SP   1    1.000000
   4.38000000E-02    1.00000000E+00   1.00000000E+00 
SP   1    1.000000
   1.31927711E-02    1.00000000E+00   1.00000000E+00 
D    1    1.000000
   6.26000000E-01    1.00000000E+00 
****
H    0
S    3    1.000000
   3.38650000E+01    2.54938000E-02 
   5.09479000E+00    1.90373000E-01 
   1.15879000E+00    8.52161000E-01 
S    1    1.000000
   3.25840000E-01    1.00000000E+00 
S    1    1.000000
   1.02741000E-01    1.00000000E+00 
S    1    1.000000
   3.60000000E-02    1.00000000E+00 
P    1    1.000000
   7.50000000E-01    1.00000000E+00 
****
$end
-----------------------------------------------------------------------
 There are 116 shells and 276 basis functions
 WARNING: the default MEM_TOTAL is adjusted according to given MEM_STATIC!
 Total memory of 40192 MB is distributed as follows: 
   MEM_STATIC is set to 192 MB
   QALLOC/CCMAN JOB total memory use is  40000 MB
 Warning: actual memory use might exceed 40192 MB

 Total QAlloc Memory Limit  40192 MB
 Mega-Array Size       188 MB
 MEM_STATIC part       192 MB

                       Distance Matrix (Angstroms)
             C (  1)   H (  2)   H (  3)   H (  4)   C (  5)   O (  6)
   H (  2)  2.117654
   H (  3)  1.088134  2.422741
   H (  4)  3.779527  4.049599  4.863011
   C (  5)  2.475729  2.018482  3.415783  2.053906
   O (  6)  3.600781  2.480255  4.434115  2.486917  1.223155
   C (  7)  2.388588  3.744283  3.407374  2.115373  2.463748  3.577972
   O (  8)  3.667901  5.081647  4.618624  2.489303  3.619409  4.589784
   N (  9)  2.767835  3.232044  3.851923  1.011743  1.396918  2.288953
   N ( 10)  1.414321  1.010977  2.137409  3.240922  1.378618  2.297300
   C ( 11)  1.385256  3.333774  2.189213  3.357891  2.878666  4.101774
   H ( 12)  2.165228  4.262389  2.566333  4.266365  3.968142  5.191197
             C (  7)   O (  8)   N (  9)   N ( 10)   C ( 11)
   O (  8)  1.348444
   N (  9)  1.408135  2.301937
   N ( 10)  2.733590  4.072926  2.334079
   C ( 11)  1.400579  2.451891  2.439163  2.414543
   H ( 12)  2.165743  2.751661  3.427365  3.417387  1.089567

 A cutoff of  1.0D-14 yielded   5425 shell pairs
 There are     35716 function pairs (     37887 Cartesian)
 Smallest overlap matrix eigenvalue = 2.91E-07
 Linear dependence detected in AO basis
 Tighter screening thresholds may be required for diffuse basis sets
 Use S2THRESH > 14 and THRESH = 14 in case of SCF convergence issues
 Number of orthogonalized atomic orbitals = 274
 Maximum deviation from orthogonality = 8.930E-11

 Scale SEOQF with 1.000000e-01/1.000000e-01/1.000000e-01

 Standard Electronic Orientation quadrupole field applied
 Nucleus-field energy     =     0.0000000101 hartrees
 Guess MOs from SCF MO coefficient file
 Reading MOs from coefficient file
 User-specified occupied guess orbitals will be used
   Alpha:
   1   2   3   4   5   6   7   8   9  10  11  12  13  14  15
  16  17  18  19  20  21  22  23  24  25  26  27  28  29  30
 Reading MOs from coefficient file
   Beta:
   1   2   3   4   5   6   7   8   9  10  11  12  13  14  15
  16  17  18  19  20  21  22  23  24  25  26  28  29

 -----------------------------------------------------------------------
  General SCF calculation program by
  Eric Jon Sundstrom, Paul Horn, Yuezhi Mao, Dmitri Zuev, Alec White,
  David Stuck, Shaama M.S., Shane Yost, Joonho Lee, David Small,
  Daniel Levine, Susi Lehtola, Hugh Burton, Evgeny Epifanovsky
 -----------------------------------------------------------------------
 Hartree-Fock
 using 4 threads for integral computing
 -------------------------------------------------------
 OpenMP Integral computing Module                
 Release: version 2.0, May 2017, Q-Chem Inc. Pleasanton 
 -------------------------------------------------------
 A unrestricted SCF calculation will be
 performed using DIIS
 SCF converges when DIIS error is below 1.0e-08
 ---------------------------------------
  Cycle       Energy         DIIS error
 ---------------------------------------
Maximum Overlap Method Active
 MOM overlap:    29.9 / 30
Maximum Overlap Method Active
 MOM overlap:    28.0 / 28
    1    -412.1753384330      1.72e-03  
Maximum Overlap Method Active
 MOM overlap:    29.99 / 30
Maximum Overlap Method Active
 MOM overlap:    27.98 / 28
    2    -412.2822930109      1.30e-03  
Maximum Overlap Method Active
 MOM overlap:    29.99 / 30
Maximum Overlap Method Active
 MOM overlap:    28.00 / 28
    3    -412.3417033388      2.65e-04  
Maximum Overlap Method Active
 MOM overlap:    30.00 / 30
Maximum Overlap Method Active
 MOM overlap:    28.00 / 28
    4    -412.3531338204      1.32e-04  
Maximum Overlap Method Active
 MOM overlap:    30.00 / 30
Maximum Overlap Method Active
 MOM overlap:    28.00 / 28
    5    -412.3556990863      5.85e-05  
Maximum Overlap Method Active
 MOM overlap:    30.00 / 30
Maximum Overlap Method Active
 MOM overlap:    28.00 / 28
    6    -412.3565370758      2.99e-05  
Maximum Overlap Method Active
 MOM overlap:    30.00 / 30
Maximum Overlap Method Active
 MOM overlap:    28.00 / 28
    7    -412.3567649805      1.55e-05  
Maximum Overlap Method Active
 MOM overlap:    30.00 / 30
Maximum Overlap Method Active
 MOM overlap:    28.00 / 28
    8    -412.3568321794      6.98e-06  
Maximum Overlap Method Active
 MOM overlap:    30.00 / 30
Maximum Overlap Method Active
 MOM overlap:    28.00 / 28
    9    -412.3568458916      4.03e-06  
Maximum Overlap Method Active
 MOM overlap:    30.00 / 30
Maximum Overlap Method Active
 MOM overlap:    28.00 / 28
   10    -412.3568531284      2.57e-06  
Maximum Overlap Method Active
 MOM overlap:    30.00 / 30
Maximum Overlap Method Active
 MOM overlap:    28.00 / 28
   11    -412.3568585633      1.61e-06  
Maximum Overlap Method Active
 MOM overlap:    30.00 / 30
Maximum Overlap Method Active
 MOM overlap:    28.00 / 28
   12    -412.3568616888      9.80e-07  
Maximum Overlap Method Active
 MOM overlap:    30.00 / 30
Maximum Overlap Method Active
 MOM overlap:    28.00 / 28
   13    -412.3568628944      6.19e-07  
Maximum Overlap Method Active
 MOM overlap:    30.00 / 30
Maximum Overlap Method Active
 MOM overlap:    28.00 / 28
   14    -412.3568633665      3.68e-07  
Maximum Overlap Method Active
 MOM overlap:    30.00 / 30
Maximum Overlap Method Active
 MOM overlap:    28.00 / 28
   15    -412.3568635166      2.36e-07  
Maximum Overlap Method Active
 MOM overlap:    30.00 / 30
Maximum Overlap Method Active
 MOM overlap:    28.00 / 28
   16    -412.3568635729      1.30e-07  
Maximum Overlap Method Active
 MOM overlap:    30.00 / 30
Maximum Overlap Method Active
 MOM overlap:    28.00 / 28
   17    -412.3568635897      5.73e-08  
Maximum Overlap Method Active
 MOM overlap:    30.00 / 30
Maximum Overlap Method Active
 MOM overlap:    28.00 / 28
   18    -412.3568635927      2.53e-08  
Maximum Overlap Method Active
 MOM overlap:    30.00 / 30
Maximum Overlap Method Active
 MOM overlap:    28.00 / 28
   19    -412.3568635931      1.47e-08  
Maximum Overlap Method Active
 MOM overlap:    30.00 / 30
Maximum Overlap Method Active
 MOM overlap:    28.00 / 28
   20    -412.3568635932      1.01e-08  
   21    -412.3568635933      6.92e-09  Convergence criterion met
Maximum Overlap Method Active
 MOM overlap:    30.00 / 30
Maximum Overlap Method Active
 MOM overlap:    28.00 / 28
Maximum Overlap Method Active
 MOM overlap:    30.00 / 30
Maximum Overlap Method Active
 MOM overlap:    28.00 / 28
 ---------------------------------------
 SCF time:   CPU 229.91s  wall 62.00s 
<S^2> =          2.009309776
 SCF   energy in the final basis set =     -412.3568635933
 Total energy in the final basis set =     -412.3568635933


 ------------------------------------------------------------------------------

   CCMAN2: suite of methods based on coupled cluster
           and equation of motion theories.

   Components:
   * libvmm-1.3-trunk
     by Evgeny Epifanovsky, Ilya Kaliman.
   * libtensor-2.5-trunk
     by Evgeny Epifanovsky, Michael Wormit, Dmitry Zuev, Sam Manzer, 
        Ilya Kaliman.
   * libcc-2.5-trunk
     by Evgeny Epifanovsky, Arik Landau, Tomasz Kus, Kirill Khistyaev, 
        Dmitry Zuev, Prashant Manohar, Xintian Feng, Anna Krylov, 
        Matthew Goldey, Alec White, Thomas Jagau, Kaushik Nanda, 
        Anastasia Gunina, Alexander Kunitsa, Joonho Lee.

   CCMAN original authors:
   Anna I. Krylov, C. David Sherrill, Steven R. Gwaltney,
   Edward F. C. Byrd (2000)
   Sergey V. Levchenko, Lyudmila V. Slipchenko, Tao Wang,
   Ana-Maria C. Cristian (2003)
   Piotr A. Pieniazek, C. Melania Oana, Evgeny Epifanovsky (2007)
   Prashant Manohar (2009)

 ------------------------------------------------------------------------------


 Allocating and initializing 40000MB of RAM...
 Calculation will run on 4 cores.


 Alpha MOs, Unrestricted
 -- Occupied --                  
-20.805 -20.606 -15.741 -15.717 -11.525 -11.492 -11.441 -11.345
  1 A'    2 A'    3 A'    4 A'    5 A'    6 A'    7 A'    8 A'                 
 -1.597  -1.492  -1.382  -1.334  -1.181  -1.026  -0.997  -0.895
  9 A'   10 A'   11 A'   12 A'   13 A'   14 A'   15 A'   16 A'                 
 -0.865  -0.828  -0.790  -0.777  -0.772  -0.716  -0.705  -0.696
 17 A'   18 A'   19 A'   20 A'    1 A"   21 A'    2 A"   22 A'                 
 -0.667  -0.576  -0.561  -0.534  -0.449  -0.104
 23 A'    3 A"    4 A"   24 A'    5 A"   25 A'                                 
 -- Virtual --                   
 -0.030  -0.004   0.008   0.008   0.021   0.023   0.027   0.029
  6 A"   26 A'   27 A'    7 A"   28 A'   29 A'   30 A'    8 A"                 
  0.032   0.037   0.040   0.045   0.048   0.050   0.051   0.056
  9 A"   31 A'   32 A'   33 A'   34 A'   35 A'   10 A"   36 A'                 
  0.058   0.058   0.066   0.072   0.072   0.074   0.077   0.085
 37 A'   11 A"   38 A'   12 A"   39 A'   13 A"   40 A'   14 A"                 
  0.088   0.099   0.101   0.108   0.109   0.114   0.123   0.127
 41 A'   42 A'   43 A'   44 A'   15 A"   45 A'   46 A'   47 A'                 
  0.132   0.136   0.140   0.151   0.165   0.166   0.173   0.175
 48 A'   49 A'   50 A'   16 A"   17 A"   51 A'   18 A"   52 A'                 
  0.187   0.196   0.202   0.210   0.210   0.216   0.225   0.226
 53 A'   54 A'   55 A'   56 A'   19 A"   57 A'   20 A"   58 A'                 
  0.233   0.241   0.247   0.252   0.260   0.267   0.288   0.298
 59 A'   60 A'   21 A"   61 A'   62 A'   63 A'   64 A'   22 A"                 
  0.307   0.315   0.320   0.333   0.340   0.344   0.371   0.376
 65 A'   66 A'   23 A"   67 A'   68 A'   69 A'   70 A'   71 A'                 
  0.379   0.386   0.387   0.406   0.411   0.420   0.434   0.441
 72 A'   73 A'   24 A"   74 A'   75 A'   76 A'   77 A'   78 A'                 
  0.449   0.491   0.507   0.529   0.567   0.584   0.619   0.670
 79 A'   80 A'   81 A'   82 A'   83 A'   84 A'   85 A'   86 A'                 
  0.683   0.690   0.707   0.712   0.726   0.739   0.757   0.817
 87 A'   25 A"   26 A"   88 A'   89 A'   27 A"   28 A"   90 A'                 
  0.820   0.873   0.884   0.896   0.925   0.935   0.945   0.955
 91 A'   92 A'   93 A'   94 A'   95 A'   96 A'   97 A'   98 A'                 
  0.982   0.992   1.016   1.032   1.034   1.090   1.149   1.156
 29 A"   99 A'  100 A'   30 A"  101 A'  102 A'   31 A"   32 A"                 
  1.184   1.203   1.206   1.221   1.290   1.300   1.311   1.321
103 A'  104 A'  105 A'   33 A"  106 A'   34 A"  107 A'  108 A'                 
  1.337   1.359   1.378   1.420   1.447   1.468   1.504   1.524
 35 A"   36 A"   37 A"  109 A'   38 A"  110 A'  111 A'  112 A'                 
  1.670   1.679   1.713   1.749   1.780   1.786   1.819   1.839
113 A'  114 A'  115 A'   39 A"  116 A'   40 A"  117 A'  118 A'                 
  1.862   1.881   1.909   1.955   1.960   2.026   2.057   2.118
 41 A"  119 A'  120 A'   42 A"  121 A'  122 A'  123 A'  124 A'                 
  2.145   2.148   2.203   2.235   2.254   2.264   2.402   2.466
125 A'   43 A"  126 A'  127 A'  128 A'   44 A"  129 A'   45 A"                 
  2.517   2.552   2.569   2.651   2.725   2.733   2.756   2.847
130 A'   46 A"  131 A'   47 A"  132 A'   48 A"  133 A'  134 A'                 
  2.885   2.903   2.931   2.957   2.994   3.016   3.050   3.063
135 A'  136 A'  137 A'   49 A"  138 A'   50 A"  139 A'   51 A"                 
  3.089   3.111   3.120   3.177   3.237   3.238   3.248   3.263
140 A'   52 A"  141 A'  142 A'   53 A"  143 A'   54 A"  144 A'                 
  3.360   3.424   3.453   3.557   3.592   3.695   3.725   3.804
145 A'   55 A"  146 A'  147 A'  148 A'   56 A"  149 A'  150 A'                 
  3.871   3.889   3.908   4.015   4.122   4.223   4.277   4.334
151 A'  152 A'  153 A'  154 A'  155 A'   57 A"   58 A"  156 A'                 
  4.371   4.464   4.916   5.030   5.223   5.357   5.392   5.402
157 A'  158 A'  159 A'  160 A'  161 A'  162 A'   59 A"  163 A'                 
  5.483   5.573   5.589   5.627   5.763   5.787   6.130   6.381
164 A'   60 A"  165 A'  166 A'  167 A'  168 A'  169 A'  170 A'                 
  7.560   7.621   9.491   9.842  20.536  20.593  20.627  20.798
171 A'  172 A'  173 A'  174 A'  175 A'  176 A'  177 A'  178 A'                 
 30.093  30.126  40.546  40.845  80.082  80.136  80.165  80.330
179 A'  180 A'  181 A'  182 A'  183 A'  184 A'  185 A'  186 A'                 
116.214 116.242 158.922 159.188 321.905 321.954 321.987 322.137
187 A'  188 A'  189 A'  190 A'  191 A'  192 A'  193 A'  194 A'                 
460.314 460.341 631.642 631.8851431.4591431.5031431.5411431.677
195 A'  196 A'  197 A'  198 A'  199 A'  200 A'  201 A'  202 A'                 
*******2012.8152759.0532759.2818749.6808749.7198749.7638749.885
203 A'  204 A'  205 A'  206 A'  207 A'  208 A'  209 A'  210 A'                 
*******************************
211 A'  212 A'  213 A'  214 A'                                                 

 Beta MOs, Unrestricted
 -- Occupied --                  
-20.763 -20.606 -15.739 -15.717 -11.527 -11.492 -11.440 -11.344
  1 A'    2 A'    3 A'    4 A'    5 A'    6 A'    7 A'    8 A'                 
 -1.501  -1.463  -1.369  -1.321  -1.172  -1.015  -0.978  -0.882
  9 A'   10 A'   11 A'   12 A'   13 A'   14 A'   15 A'   16 A'                 
 -0.835  -0.796  -0.786  -0.749  -0.715  -0.692  -0.684  -0.671
 17 A'   18 A'   19 A'    1 A"   20 A'   21 A'    2 A"   22 A'                 
 -0.575  -0.551  -0.533  -0.447
  3 A"    4 A"   23 A'    5 A"                                                 
 -- Virtual --                   
 -0.053  -0.028  -0.001   0.014   0.016   0.019   0.030   0.030
 24 A'    6 A"   25 A'   26 A'    7 A"   27 A'   28 A'   29 A'                 
  0.033   0.034   0.040   0.041   0.046   0.050   0.054   0.057
  8 A"   30 A'    9 A"   31 A'   32 A'   33 A'   34 A'   10 A"                 
  0.057   0.060   0.062   0.066   0.074   0.077   0.080   0.081
 35 A'   36 A'   11 A"   37 A'   12 A"   38 A'   13 A"   39 A'                 
  0.088   0.090   0.093   0.103   0.105   0.110   0.113   0.118
 40 A'   14 A"   41 A'   42 A'   43 A'   15 A"   44 A'   45 A'                 
  0.128   0.129   0.138   0.142   0.150   0.159   0.172   0.173
 46 A'   47 A'   48 A'   49 A'   50 A'   16 A"   17 A"   51 A'                 
  0.181   0.182   0.197   0.205   0.209   0.214   0.216   0.224
 18 A"   52 A'   53 A'   54 A'   55 A'   19 A"   56 A'   57 A'                 
  0.227   0.235   0.237   0.246   0.250   0.259   0.266   0.272
 20 A"   58 A'   59 A'   60 A'   21 A"   61 A'   62 A'   63 A'                 
  0.293   0.304   0.311   0.323   0.326   0.341   0.343   0.347
 64 A'   22 A"   65 A'   66 A'   23 A"   67 A'   68 A'   69 A'                 
  0.377   0.381   0.388   0.389   0.395   0.413   0.419   0.429
 70 A'   71 A'   24 A"   72 A'   73 A'   74 A'   75 A'   76 A'                 
  0.437   0.449   0.460   0.503   0.513   0.537   0.572   0.587
 77 A'   78 A'   79 A'   80 A'   81 A'   82 A'   83 A'   84 A'                 
  0.623   0.673   0.689   0.691   0.708   0.717   0.737   0.741
 85 A'   86 A'   87 A'   25 A"   26 A"   88 A'   89 A'   27 A"                 
  0.758   0.819   0.823   0.875   0.889   0.899   0.929   0.938
 28 A"   90 A'   91 A'   92 A'   93 A'   94 A'   95 A'   96 A'                 
  0.949   0.959   0.983   0.993   1.020   1.033   1.038   1.091
 97 A'   98 A'   29 A"   99 A'  100 A'   30 A"  101 A'  102 A'                 
  1.149   1.158   1.188   1.207   1.210   1.237   1.300   1.303
 31 A"   32 A"  103 A'  104 A'  105 A'   33 A"   34 A"  106 A'                 
  1.324   1.338   1.359   1.379   1.395   1.439   1.447   1.472
107 A'   35 A"   36 A"   37 A"  108 A'  109 A'   38 A"  110 A'                 
  1.507   1.530   1.673   1.685   1.717   1.749   1.787   1.790
111 A'  112 A'  113 A'  114 A'  115 A'   39 A"   40 A"  116 A'                 
  1.827   1.845   1.863   1.885   1.918   1.955   1.962   2.028
117 A'  118 A'   41 A"  119 A'  120 A'   42 A"  121 A'  122 A'                 
  2.058   2.119   2.149   2.150   2.204   2.240   2.260   2.265
123 A'  124 A'  125 A'   43 A"  126 A'  127 A'  128 A'   44 A"                 
  2.405   2.469   2.524   2.554   2.575   2.652   2.728   2.740
129 A'   45 A"  130 A'   46 A"  131 A'   47 A"  132 A'   48 A"                 
  2.761   2.861   2.887   2.919   2.940   2.985   2.995   3.056
133 A'  134 A'  135 A'  136 A'  137 A'   49 A"  138 A'   50 A"                 
  3.087   3.108   3.109   3.115   3.155   3.190   3.238   3.240
139 A'  140 A'   51 A"   52 A"  141 A'  142 A'   53 A"  143 A'                 
  3.251   3.266   3.370   3.442   3.464   3.569   3.642   3.695
 54 A"  144 A'  145 A'   55 A"  146 A'  147 A'  148 A'   56 A"                 
  3.727   3.808   3.875   3.890   3.911   4.017   4.131   4.223
149 A'  150 A'  151 A'  152 A'  153 A'  154 A'  155 A'   57 A"                 
  4.277   4.337   4.376   4.475   4.918   5.033   5.224   5.360
 58 A"  156 A'  157 A'  158 A'  159 A'  160 A'  161 A'  162 A'                 
  5.420   5.433   5.573   5.578   5.594   5.628   5.763   5.789
 59 A"  163 A'   60 A"  164 A'  165 A'  166 A'  167 A'  168 A'                 
  6.151   6.381   7.562   7.622   9.539   9.842  20.535  20.593
169 A'  170 A'  171 A'  172 A'  173 A'  174 A'  175 A'  176 A'                 
 20.628  20.799  30.094  30.126  40.568  40.845  80.081  80.136
177 A'  178 A'  179 A'  180 A'  181 A'  182 A'  183 A'  184 A'                 
 80.166  80.330 116.214 116.243 158.929 159.188 321.905 321.954
185 A'  186 A'  187 A'  188 A'  189 A'  190 A'  191 A'  192 A'                 
321.987 322.138 460.315 460.341 631.644 631.8851431.4591431.503
193 A'  194 A'  195 A'  196 A'  197 A'  198 A'  199 A'  200 A'                 
*******1431.6772012.7902012.8152759.0542759.2818749.6808749.719
201 A'  202 A'  203 A'  204 A'  205 A'  206 A'  207 A'  208 A'                 
*******8749.885********************************
209 A'  210 A'  211 A'  212 A'  213 A'  214 A'                                 

 Occupation and symmetry of molecular orbitals

 Point group: Cs (2 irreducible representations).

                           A'   A"    All 
 ------------------------------------------
 All molecular orbitals:
  - Alpha                  214  60    274 
  - Beta                   214  60    274 
 ------------------------------------------
 Alpha orbitals:
  - Frozen occupied        2    0     2   
  - Active occupied        23   5     28  
  - Active virtual         189  55    244 
  - Frozen virtual         0    0     0   
 ------------------------------------------
 Beta orbitals:
  - Frozen occupied        2    0     2   
  - Active occupied        21   5     26  
  - Active virtual         191  55    246 
  - Frozen virtual         0    0     0   
 ------------------------------------------

 Import integrals:   CPU 0.00 s  wall 0.00 s

 Import integrals:   CPU 1793.36 s  wall 814.71 s

 MP2 amplitudes:   CPU 3.63 s  wall 3.40 s

Running a double precision version
           CCSD T amplitudes will be solved using DIIS.

           Start     Size      MaxIter   EConv     TConv     
           3         7         100       1.00e-06  1.00e-04  
 ------------------------------------------------------------------------------
           Energy (a.u.)   Ediff      Tdiff       Comment
 ------------------------------------------------------------------------------
          -413.72442865                           
     1    -413.70792049   1.65e-02   9.93e-01     Step took 04.41.
     2    -413.75417696   4.63e-02   1.37e-01     
     3    -413.75103254   3.14e-03   5.20e-02     
     4    -413.75640373   5.37e-03   2.32e-02     Switched to DIIS steps.
     5    -413.75953064   3.13e-03   1.54e-02     
     6    -413.76028618   7.56e-04   6.97e-03     
     7    -413.76062321   3.37e-04   6.82e-03     
     8    -413.76075660   1.33e-04   3.75e-03     
     9    -413.76089125   1.35e-04   3.22e-03     
    10    -413.76091207   2.08e-05   1.30e-03     
    11    -413.76092340   1.13e-05   6.76e-04     
    12    -413.76093195   8.55e-06   5.79e-04     
    13    -413.76092519   6.76e-06   2.74e-04     
    14    -413.76092399   1.20e-06   1.64e-04     
    15    -413.76091951   4.47e-06   1.07e-04     
    16    -413.76091659   2.92e-06   5.92e-05     
    17    -413.76091455   2.04e-06   3.95e-05     
    18    -413.76091345   1.10e-06   2.33e-05     
    19    -413.76091275   7.05e-07   1.65e-05     
 ------------------------------------------------------------------------------
          -413.76091275                           CCSD T converged.

End of double precision
 SCF energy                 = -412.35686359
 MP2 energy                 = -413.72442865
 CCSD correlation energy    =   -1.40404916
 CCSD total energy          = -413.76091275

 CCSD  T1^2 = 0.1394  T2^2 = 0.4260  Leading amplitudes:

 Amplitude    Orbitals with energies
  0.1940       25 (A') A                 ->    26 (A') A                  
              -0.1038                         -0.0043                     
 -0.1157       25 (A') A                 ->    31 (A') A                  
              -0.1038                          0.0366                     
  0.1006       25 (A') A                 ->    29 (A') A                  
              -0.1038                          0.0234                     
  0.0747       25 (A') A                 ->    28 (A') A                  
              -0.1038                          0.0212                     

 Amplitude    Orbitals with energies
  0.0447       3 (A") A      3 (A") B    ->    6 (A") A      6 (A") B     
              -0.5759       -0.5747           -0.0298       -0.0276       
 -0.0447       3 (A") A      3 (A") B    ->    6 (A") B      6 (A") A     
              -0.5759       -0.5747           -0.0276       -0.0298       
 -0.0447       3 (A") B      3 (A") A    ->    6 (A") A      6 (A") B     
              -0.5747       -0.5759           -0.0298       -0.0276       
  0.0447       3 (A") B      3 (A") A    ->    6 (A") B      6 (A") A     
              -0.5747       -0.5759           -0.0276       -0.0298       

 Computing CCSD intermediates for later calculations in double precision
 Finished.

Running a double precision version
           CCSD Lambda amplitudes will be solved using DIIS.
           Start     Size      MaxIter   EConv     LConv     
           3         7         100       1.00e-06  1.00e-04  
 ------------------------------------------------------------------------------
            Enorm      Ldiff       Comment
 ------------------------------------------------------------------------------
     1     8.72e-02   5.25e-02     
     2     3.04e-02   9.21e-03     
     3     1.66e-02   2.24e-03     
     4     8.55e-03   2.16e-03     Switched to DIIS steps.
     5     3.83e-03   2.09e-03     
     6     2.08e-03   8.42e-04     
     7     1.05e-03   4.37e-04     
     8     6.47e-04   2.16e-04     
     9     3.54e-04   1.22e-04     
    10     2.06e-04   6.26e-05     
    11     1.29e-04   3.06e-05     
    12     7.13e-05   2.00e-05     
    13     4.50e-05   7.90e-06     
    14     2.42e-05   2.96e-06     
    15     1.33e-05   9.57e-07     
    16     8.16e-06   4.46e-09     
    17     4.93e-06   3.65e-07     
    18     3.18e-06   3.36e-07     
    19     2.03e-06   2.81e-07     
    20     1.32e-06   2.72e-07     
    21     8.63e-07   1.61e-07     
 ------------------------------------------------------------------------------
                                   CCSD Lambda converged.

 CCSD calculation:   CPU 21165.65 s  wall 23569.19 s

        Solving for CVS-EOMIP-CCSD A' transitions.

Warning! Not enough singles to form guess subspace. Doubles guess vectors will be generated.
In case of poor EOM convergence, reduce requested IP_STATES.

Running a double precision version
      CVS-EOMIP-CCSD/MP2 right amplitudes will be solved using Davidson.
        Amplitudes will be solved using shifted  algorithm.
     Hard-coded thresholds: 
     LinDepThresh=1.00e-15  NormThresh=1.00e-06  ReorthogonThresh=1.00e-02

      Roots     MaxVec    MaxIter   Precond   Conv      Shift    
      4         120       60        1         1.00e-05  1.95e+01  
 ------------------------------------------------------------------------------
      Iter ConvRoots NVecs ResNorm Current eigenvalues (eV)
 ------------------------------------------------------------------------------
      0    0      4     9.79e-01   560.1965   560.9940   562.9902   565.9505   
      1    0      8     2.63e+00   557.4958   560.1069   562.6665   562.8382   
      2    0      12    6.19e-02   541.3667   547.7992   559.3045   561.3710   
      3    0      16    2.80e-02   540.6625   546.9547   558.5016   560.3884   
      4    0      20    8.14e-03   540.6511   546.8572   558.0230   559.9716   
      5    0      24    9.09e-02   540.6461   546.8160   557.5449   558.5327   
      6    1      28    9.26e-02   540.6469*  546.8193   551.9751   557.0664   
      7    1      31    5.18e-02   540.6469*  541.0213   546.8283   554.6730   
      8    1      34    1.70e-02   539.0412   540.6469*  546.8296   552.8464   
      9    1      37    3.88e-03   538.9682   540.6469*  546.8320   552.3283   
      10   2      40    2.74e-03   538.9602   540.6469*  546.8328*  551.9939   
      11   2      42    6.69e-04   538.9591   540.6469*  546.8326*  551.8710   
      12   3      44    1.21e-04   538.9589*  540.6469*  546.8326*  551.8462   
      13   3      45    1.16e-04   538.9589*  540.6469*  546.8326*  551.8352   
      14   3      46    2.73e-05   538.9589*  540.6469*  546.8326*  551.8294   
      15   3      47    1.18e-05   538.9589*  540.6469*  546.8326*  551.8280   
      16   3      48    3.55e-06   538.9589*  540.6469*  546.8326*  551.8277   
      17   4      49    3.03e-06   538.9589*  540.6469*  546.8326*  551.8274*  

     Davidson procedure converged

 EOMIP transition 1/A'
 Total energy = -393.95453652 a.u.  Excitation energy = 538.9589 eV.
 R1^2 = 0.0000  R2_CCVV^2 = 0.0000  R2_COVV^2 = 1.0000  Res^2 = 1.42e-06
 Conv-d = yes

 Amplitude    Transitions between orbitals
  1.1762       1 (A') B      25 (A') A   ->    24 (A') B     
 -0.2260       1 (A') B      25 (A') A   ->    108 (A') B    
  0.2204       1 (A') B      25 (A') A   ->    109 (A') B    
  0.2177       1 (A') B      25 (A') A   ->    79 (A') B     
  0.1933       1 (A') B      25 (A') A   ->    40 (A') B     
 -0.1922       1 (A') B      25 (A') A   ->    80 (A') B     
  0.1813       1 (A') B      25 (A') A   ->    76 (A') B     
 -0.1532       1 (A') B      25 (A') A   ->    73 (A') B     
  0.1514       1 (A') B      25 (A') A   ->    26 (A') B     
 -0.1436       1 (A') B      25 (A') A   ->    53 (A') B     
 -0.1354       1 (A') B      25 (A') A   ->    81 (A') B     
 -0.1279       1 (A') B      25 (A') A   ->    62 (A') B     
  0.1187       1 (A') B      25 (A') A   ->    89 (A') B     
  0.1185       1 (A') B      25 (A') A   ->    25 (A') B     
  0.1175       1 (A') B      25 (A') A   ->    31 (A') B     
  0.1122       1 (A') B      25 (A') A   ->    57 (A') B     
 -0.1116       1 (A') B      25 (A') A   ->    78 (A') B     
  0.1081       1 (A') B      25 (A') A   ->    67 (A') B     
 -0.1046       1 (A') B      25 (A') A   ->    87 (A') B     
  0.1022       1 (A') B      25 (A') A   ->    164 (A') B    
 -0.1007       1 (A') B      25 (A') A   ->    54 (A') B     

              Summary of significant orbitals:

               Number  Type             Irrep      Energy
               1       Occ  Beta        1 (A')    -20.7633
               30      Occ  Alpha      25 (A')     -0.1038
               29      Vir  Beta       24 (A')     -0.0531
               31      Vir  Beta       25 (A')     -0.0015
               32      Vir  Beta       26 (A')      0.0141
               40      Vir  Beta       31 (A')      0.0405
               53      Vir  Beta       40 (A')      0.0875
               71      Vir  Beta       53 (A')      0.1971
               72      Vir  Beta       54 (A')      0.2050
               76      Vir  Beta       57 (A')      0.2237
               83      Vir  Beta       62 (A')      0.2661
               90      Vir  Beta       67 (A')      0.3415
               97      Vir  Beta       73 (A')      0.3948
               100     Vir  Beta       76 (A')      0.4292
               102     Vir  Beta       78 (A')      0.4493
               103     Vir  Beta       79 (A')      0.4601
               104     Vir  Beta       80 (A')      0.5025
               105     Vir  Beta       81 (A')      0.5131
               111     Vir  Beta       87 (A')      0.6895
               115     Vir  Beta       89 (A')      0.7368
               145     Vir  Beta      108 (A')      1.3953
               146     Vir  Beta      109 (A')      1.4386
               224     Vir  Beta      164 (A')      5.5777


 EOMIP transition 2/A'
 Total energy = -393.89250289 a.u.  Excitation energy = 540.6469 eV.
 R1^2 = 0.9020  R2_CCVV^2 = 0.0010  R2_COVV^2 = 0.0975  Res^2 = 5.24e-07
 Conv-d = yes

 Amplitude    Transitions between orbitals
  0.9497       2 (A') A                  ->    infty        

              Summary of significant orbitals:

               Number  Type             Irrep      Energy
               2       Occ  Alpha       2 (A')    -20.6064


 EOMIP transition 3/A'
 Total energy = -393.66518427 a.u.  Excitation energy = 546.8326 eV.
 R1^2 = 0.8644  R2_CCVV^2 = 0.0009  R2_COVV^2 = 0.1351  Res^2 = 1.87e-07
 Conv-d = yes

 Amplitude    Transitions between orbitals
 -0.9297       1 (A') A                  ->    infty        

              Summary of significant orbitals:

               Number  Type             Irrep      Energy
               1       Occ  Alpha       1 (A')    -20.8049


 EOMIP transition 4/A'
 Total energy = -393.48162860 a.u.  Excitation energy = 551.8274 eV.
 R1^2 = 0.0144  R2_CCVV^2 = 0.0000  R2_COVV^2 = 0.9856  Res^2 = 9.98e-06
 Conv-d = yes

 Amplitude    Transitions between orbitals
  1.1475       1 (A') A      23 (A') B   ->    24 (A') B     
 -0.2391       1 (A') A      23 (A') B   ->    108 (A') B    
  0.2344       1 (A') A      23 (A') B   ->    109 (A') B    
  0.2210       1 (A') A      23 (A') B   ->    79 (A') B     
 -0.1929       1 (A') A      23 (A') B   ->    80 (A') B     
  0.1918       1 (A') A      23 (A') B   ->    40 (A') B     
  0.1834       1 (A') A      23 (A') B   ->    76 (A') B     
 -0.1503       1 (A') A      23 (A') B   ->    73 (A') B     
  0.1488       1 (A') A      23 (A') B   ->    26 (A') B     
 -0.1447       1 (A') A      23 (A') B   ->    53 (A') B     
 -0.1353       1 (A') A      23 (A') B   ->    81 (A') B     
 -0.1277       1 (A') A      23 (A') B   ->    62 (A') B     
  0.1234       1 (A') A      23 (A') B   ->    89 (A') B     
  0.1227       1 (A') A      23 (A') B   ->    164 (A') B    
  0.1153       1 (A') A      23 (A') B   ->    25 (A') B     
  0.1148       1 (A') A      23 (A') B   ->    31 (A') B     
  0.1130       1 (A') A      23 (A') B   ->    57 (A') B     
 -0.1121       1 (A') A      23 (A') B   ->    78 (A') B     
 -0.1088       1 (A') A      23 (A') B   ->    87 (A') B     
  0.1053       1 (A') A      23 (A') B   ->    67 (A') B     
  0.1001       1 (A') A      23 (A') B   ->    75 (A') B     

              Summary of significant orbitals:

               Number  Type             Irrep      Energy
               1       Occ  Alpha       1 (A')    -20.8049
               27      Occ  Beta       23 (A')     -0.5332
               29      Vir  Beta       24 (A')     -0.0531
               31      Vir  Beta       25 (A')     -0.0015
               32      Vir  Beta       26 (A')      0.0141
               40      Vir  Beta       31 (A')      0.0405
               53      Vir  Beta       40 (A')      0.0875
               71      Vir  Beta       53 (A')      0.1971
               76      Vir  Beta       57 (A')      0.2237
               83      Vir  Beta       62 (A')      0.2661
               90      Vir  Beta       67 (A')      0.3415
               97      Vir  Beta       73 (A')      0.3948
               99      Vir  Beta       75 (A')      0.4190
               100     Vir  Beta       76 (A')      0.4292
               102     Vir  Beta       78 (A')      0.4493
               103     Vir  Beta       79 (A')      0.4601
               104     Vir  Beta       80 (A')      0.5025
               105     Vir  Beta       81 (A')      0.5131
               111     Vir  Beta       87 (A')      0.6895
               115     Vir  Beta       89 (A')      0.7368
               145     Vir  Beta      108 (A')      1.3953
               146     Vir  Beta      109 (A')      1.4386
               224     Vir  Beta      164 (A')      5.5777


Running a double precision version
      CVS-EOMIP-CCSD/MP2 left amplitudes will be solved using Davidson.
        Amplitudes will be solved using MOM  algorithm.
     Hard-coded thresholds: 
     LinDepThresh=1.00e-15  NormThresh=1.00e-06  ReorthogonThresh=1.00e-02

      Roots     MaxVec    MaxIter   Precond   Conv      Shift    
      4         120       60        1         1.00e-05  1.95e+01  
 ------------------------------------------------------------------------------
      Iter ConvRoots NVecs ResNorm Current eigenvalues (eV)
 ------------------------------------------------------------------------------
      0    0      4     2.73e-02   538.9589   542.3476   547.9745   551.8840   
      1    0      8     3.10e-01   538.9589   540.6005   546.8099   551.8295   
      2    0      12    4.60e-03   538.9589   540.6558   546.8220   551.8278   
      3    0      16    9.61e-04   538.9589   540.6479   546.8291   551.8277   
      4    1      20    2.85e-05   538.9589*  540.6471   546.8320   551.8270   
      5    2      23    7.17e-05   538.9589*  540.6470*  546.8332   551.8269   
      6    3      25    2.06e-05   538.9589*  540.6470*  546.8328*  551.8270   
      7    3      26    3.14e-05   538.9589*  540.6470*  546.8328*  551.8269   
      8    2      27    6.82e-05   538.9589*  540.6470*  546.8328   551.8267   
      9    3      29    7.56e-06   538.9589*  540.6470*  546.8325*  551.8265   
      10   3      30    5.92e-05   538.9589*  540.6470*  546.8325*  551.8263   
      11   3      31    1.08e-05   538.9589*  540.6470*  546.8325*  551.8261   
      12   3      32    1.64e-05   538.9589*  540.6470*  546.8325*  551.8261   
      13   3      33    1.51e-05   538.9589*  540.6470*  546.8325*  551.8260   
      14   4      34    1.85e-06   538.9589*  540.6470*  546.8326*  551.8259*  

     Davidson procedure converged

 CVS-EOMIP-CCSD calculation:   CPU 154.32 s  wall 87.14 s


 Reference -- EOM-IP-CCSD state  1/A'   transition
 Energy difference = 538.9589 eV.

 Left Dyson orbital norm is 0.002774

Left alpha Dyson orbital in the MO basis (canonical Q-Chem's ordering):
0     -1.0000e+00
1     -1.1755e-04
2     2.7581e-16
3     2.5303e-16
[...]
210   -2.0713e-15
211   -6.0125e-16
212   2.6028e-16
213   4.0113e-16
214   7.7918e-16
215   1.0493e-15
216   1.2084e-15
217   2.2660e-15
218   2.6860e-15
219   2.0864e-15
220   -1.8770e-16
221   3.5310e-16
222   -9.9055e-16
223   1.4417e-16
224   1.5954e-15
225   -1.2850e-17
226   7.9195e-16
227   -1.5597e-16
228   1.0705e-15
229   7.1929e-16
230   2.4517e-16
231   -9.4942e-16
232   -1.9917e-15
233   -1.1589e-15
234   -4.3728e-16
235   -5.2306e-16
236   1.3113e-15
237   -5.9045e-16
238   -6.1709e-16
239   2.4865e-16
240   7.2321e-16
241   8.3627e-16
242   -4.0942e-17
243   -3.4810e-16
244   8.2911e-16
245   4.1893e-16
246   4.1513e-16
247   -1.1039e-15
248   8.0967e-16
249   -8.3963e-16
250   -4.8599e-18
251   -9.0557e-16
252   -8.3373e-16
253   1.2456e-16
254   -5.1827e-16
255   2.9155e-16
256   1.7685e-17
257   3.7646e-16
258   3.7791e-16
259   4.9159e-16
260   8.2371e-17
261   5.5558e-16
262   1.6707e-16
263   -5.7515e-16
264   7.3876e-17
265   3.2705e-16
266   -1.9551e-17
267   2.5944e-16
268   -1.6223e-16
269   -1.1476e-16
270   -7.7807e-17
271   -4.7394e-16
272   7.1651e-16
273   -3.7839e-16

Decomposition over AOs for the right alpha Dyson orbital:
1.81338185e-09
-1.46426781e-08
1.35759969e-07
-3.65477441e-07
5.51708056e-06
2.19784133e-05
-1.26598567e-05
6.87161410e-07
3.15912735e-06
1.67200656e-15
-5.40905370e-05
-1.29335112e-05
-1.93465540e-05
3.75402885e-15
4.32448482e-04
4.27644768e-05
2.41910442e-04
3.34911173e-15
-1.15434930e-03
-3.61833141e-04
5.74696086e-04
-9.04826833e-15
-4.57740747e-04
-2.24694628e-04
-9.32146448e-05
5.14284510e-15
-1.69022186e-05
4.69830982e-17
-1.92914411e-06
-1.09985610e-16
8.40063486e-06
-3.33110820e-07
-3.09093866e-05
2.64410824e-05
-1.03716569e-04
-6.04892344e-07
-2.84040292e-06
6.10405764e-16
2.51465188e-06
3.07593361e-06
1.88752789e-04
5.01379608e-04
-4.55076116e-06
3.06160859e-06
1.13458183e-15
-1.16617401e-06
-8.53739964e-05
8.66866747e-05
-1.12843006e-04
-4.75189561e-06
1.90256354e-05
-1.53636018e-15
6.31496331e-10
2.57023227e-10
3.53909431e-08
-9.27104793e-09
1.09281869e-06
4.81954566e-06
-2.03953934e-06
-1.27612901e-06
-6.05240417e-07
-1.59988685e-15
-1.67368307e-05
5.25859125e-06
7.17724689e-07
-1.43792709e-15
2.02851859e-04
3.22873678e-04
-3.03445908e-05
-1.58542484e-15
1.30279422e-03
1.05811699e-03
4.85309237e-05
-2.64605507e-14
8.72210572e-04
2.36316975e-04
4.00196563e-04
-2.35448528e-14
4.87691208e-07
-1.27832694e-15
-4.39838026e-06
-4.59636601e-17
-2.97941120e-06
3.55835284e-08
2.68168354e-07
1.33299227e-06
4.46754270e-06
1.16743596e-05
7.43248842e-06
1.46570691e-05
2.00058271e-06
2.49785667e-07
-1.05860249e-15
-6.41785126e-06
-6.36164063e-06
4.22063578e-07
-1.13274018e-15
5.25188013e-05
3.28767683e-05
-2.69200329e-05
-4.10888355e-15
4.44700169e-04
6.28096391e-05
-8.17311147e-05
2.01791147e-15
1.78746093e-03
2.54267826e-04
-5.92563479e-05
6.47498100e-15
-1.37338555e-06
2.46219149e-16
-1.33581328e-06
-4.25301993e-16
-1.24163551e-06
2.27563600e-08
-3.03999965e-08
1.39297758e-06
-1.08365386e-06
4.71811332e-05
1.95639634e-04
-8.34437877e-05
3.02627145e-05
1.95072277e-05
-9.49302602e-16
-3.87741709e-04
-4.73900439e-04
-3.62679084e-04
-2.67632297e-15
5.69991303e-04
1.47142971e-04
-7.54581641e-05
-2.12629369e-15
1.44969928e-04
3.10210020e-03
1.58332068e-03
-1.93478133e-14
-2.36979368e-04
3.48158072e-04
-7.50364670e-04
3.60388699e-14
-3.01610725e-04
-1.46542892e-15
8.33544008e-05
-3.42889144e-16
-1.23125018e-04
-1.04328740e-03
-7.93635880e-03
-3.89137473e-02
-1.32427626e-01
-3.27735402e-01
-1.56213381e-01
-4.70786267e-01
1.45037379e-03
1.06157722e-03
-9.85049580e-16
-5.73328869e-03
-6.65186245e-04
-4.85881537e-04
-2.39708297e-15
1.08619807e-03
1.67169520e-04
1.32456589e-04
-2.56093353e-15
-2.83561191e-03
2.54419201e-04
1.95376278e-04
-1.91642752e-15
-5.43558394e-03
1.03710837e-03
4.13143580e-04
-3.52986607e-15
4.93207269e-04
3.18498663e-19
7.95425772e-05
1.87574960e-16
1.52585017e-04
1.28462886e-09
-2.71285047e-08
1.29933034e-07
-5.94364096e-07
7.06305766e-06
2.80904285e-05
-1.94927141e-05
2.30206895e-05
-6.56122615e-06
-2.34348353e-15
-2.57605149e-05
-8.36938038e-05
3.46867428e-05
-1.04809824e-15
-1.38598518e-04
1.84860818e-04
1.60429969e-04
-9.41847000e-15
-5.34225884e-05
3.87952958e-04
-1.74773590e-04
1.57605191e-14
1.80195273e-03
2.32374875e-03
-5.97544454e-06
-4.90227372e-15
2.69313024e-05
-3.13943326e-17
6.27741376e-06
5.62510427e-17
-3.30525831e-05
3.81819750e-10
-6.45211369e-09
3.58859530e-08
-1.43674024e-07
1.75249608e-06
6.72356806e-06
-4.36620300e-06
3.67095042e-07
1.66568130e-07
9.62246702e-16
-9.23628422e-06
-2.72371605e-06
-1.46562836e-06
1.58567784e-15
-9.48433035e-05
-1.17457527e-04
-7.96054666e-06
6.72512621e-16
-7.30102166e-04
-2.57736408e-04
-5.02284259e-07
7.91072811e-15
4.10397024e-05
-2.84996686e-04
1.93136329e-04
2.30210078e-14
3.50739840e-06
-6.35321862e-16
-1.28396395e-06
1.19095457e-16
2.22640361e-06
-5.26969228e-10
-2.28440610e-08
1.92246738e-08
-4.54195672e-07
3.61421548e-06
2.06856029e-05
-1.22660591e-05
8.98141398e-06
2.18785707e-05
8.49032368e-16
-2.66357146e-05
-2.23131928e-05
-1.34597932e-04
1.97800472e-15
-4.10006942e-04
2.55709892e-04
-5.17108925e-05
7.31267580e-18
2.37273572e-03
-1.51674564e-03
-1.25078338e-04
1.60842399e-14
-3.91046730e-04
-2.28829769e-04
6.15709221e-06
-3.09119256e-14
-5.21836866e-05
-1.27118692e-15
3.83345914e-06
-9.66423104e-16
6.65604118e-05
-4.43578019e-06
-1.03653545e-04
4.00961191e-05
8.70478838e-04
2.65576919e-05
-1.51177855e-05
6.54355711e-16
   *****

     End transition

 Dyson orbitals calculation:   CPU 0.19 s  wall 0.67 s

 Total ccman2 time:   CPU 23152.29 s  wall 24488.43 s


 --------------------------------------------------------------
             Orbital Energies (a.u.) and Symmetries
 --------------------------------------------------------------

 Alpha MOs, Unrestricted
 -- Occupied --                  
-20.805 -20.606 -15.741 -15.717 -11.525 -11.492 -11.441 -11.345
  1 A'    2 A'    3 A'    4 A'    5 A'    6 A'    7 A'    8 A'                 
 -1.597  -1.492  -1.382  -1.334  -1.181  -1.026  -0.997  -0.895
  9 A'   10 A'   11 A'   12 A'   13 A'   14 A'   15 A'   16 A'                 
 -0.865  -0.828  -0.790  -0.777  -0.772  -0.716  -0.705  -0.696
 17 A'   18 A'   19 A'   20 A'    1 A"   21 A'    2 A"   22 A'                 
 -0.667  -0.576  -0.561  -0.534  -0.449  -0.104
 23 A'    3 A"    4 A"   24 A'    5 A"   25 A'                                 
 -- Virtual --                   
 -0.030  -0.004   0.008   0.008   0.021   0.023   0.027   0.029
  6 A"   26 A'   27 A'    7 A"   28 A'   29 A'   30 A'    8 A"                 
  0.032   0.037   0.040   0.045   0.048   0.050   0.051   0.056
  9 A"   31 A'   32 A'   33 A'   34 A'   35 A'   10 A"   36 A'                 
  0.058   0.058   0.066   0.072   0.072   0.074   0.077   0.085
 37 A'   11 A"   38 A'   12 A"   39 A'   13 A"   40 A'   14 A"                 
  0.088   0.099   0.101   0.108   0.109   0.114   0.123   0.127
 41 A'   42 A'   43 A'   44 A'   15 A"   45 A'   46 A'   47 A'                 
  0.132   0.136   0.140   0.151   0.165   0.166   0.173   0.175
 48 A'   49 A'   50 A'   16 A"   17 A"   51 A'   18 A"   52 A'                 
  0.187   0.196   0.202   0.210   0.210   0.216   0.225   0.226
 53 A'   54 A'   55 A'   56 A'   19 A"   57 A'   20 A"   58 A'                 
  0.233   0.241   0.247   0.252   0.260   0.267   0.288   0.298
 59 A'   60 A'   21 A"   61 A'   62 A'   63 A'   64 A'   22 A"                 
  0.307   0.315   0.320   0.333   0.340   0.344   0.371   0.376
 65 A'   66 A'   23 A"   67 A'   68 A'   69 A'   70 A'   71 A'                 
  0.379   0.386   0.387   0.406   0.411   0.420   0.434   0.441
 72 A'   73 A'   24 A"   74 A'   75 A'   76 A'   77 A'   78 A'                 
  0.449   0.491   0.507   0.529   0.567   0.584   0.619   0.670
 79 A'   80 A'   81 A'   82 A'   83 A'   84 A'   85 A'   86 A'                 
  0.683   0.690   0.707   0.712   0.726   0.739   0.757   0.817
 87 A'   25 A"   26 A"   88 A'   89 A'   27 A"   28 A"   90 A'                 
  0.820   0.873   0.884   0.896   0.925   0.935   0.945   0.955
 91 A'   92 A'   93 A'   94 A'   95 A'   96 A'   97 A'   98 A'                 
  0.982   0.992   1.016   1.032   1.034   1.090   1.149   1.156
 29 A"   99 A'  100 A'   30 A"  101 A'  102 A'   31 A"   32 A"                 
  1.184   1.203   1.206   1.221   1.290   1.300   1.311   1.321
103 A'  104 A'  105 A'   33 A"  106 A'   34 A"  107 A'  108 A'                 
  1.337   1.359   1.378   1.420   1.447   1.468   1.504   1.524
 35 A"   36 A"   37 A"  109 A'   38 A"  110 A'  111 A'  112 A'                 
  1.670   1.679   1.713   1.749   1.780   1.786   1.819   1.839
113 A'  114 A'  115 A'   39 A"  116 A'   40 A"  117 A'  118 A'                 
  1.862   1.881   1.909   1.955   1.960   2.026   2.057   2.118
 41 A"  119 A'  120 A'   42 A"  121 A'  122 A'  123 A'  124 A'                 
  2.145   2.148   2.203   2.235   2.254   2.264   2.402   2.466
125 A'   43 A"  126 A'  127 A'  128 A'   44 A"  129 A'   45 A"                 
  2.517   2.552   2.569   2.651   2.725   2.733   2.756   2.847
130 A'   46 A"  131 A'   47 A"  132 A'   48 A"  133 A'  134 A'                 
  2.885   2.903   2.931   2.957   2.994   3.016   3.050   3.063
135 A'  136 A'  137 A'   49 A"  138 A'   50 A"  139 A'   51 A"                 
  3.089   3.111   3.120   3.177   3.237   3.238   3.248   3.263
140 A'   52 A"  141 A'  142 A'   53 A"  143 A'   54 A"  144 A'                 
  3.360   3.424   3.453   3.557   3.592   3.695   3.725   3.804
145 A'   55 A"  146 A'  147 A'  148 A'   56 A"  149 A'  150 A'                 
  3.871   3.889   3.908   4.015   4.122   4.223   4.277   4.334
151 A'  152 A'  153 A'  154 A'  155 A'   57 A"   58 A"  156 A'                 
  4.371   4.464   4.916   5.030   5.223   5.357   5.392   5.402
157 A'  158 A'  159 A'  160 A'  161 A'  162 A'   59 A"  163 A'                 
  5.483   5.573   5.589   5.627   5.763   5.787   6.130   6.381
164 A'   60 A"  165 A'  166 A'  167 A'  168 A'  169 A'  170 A'                 
  7.560   7.621   9.491   9.842  20.536  20.593  20.627  20.798
171 A'  172 A'  173 A'  174 A'  175 A'  176 A'  177 A'  178 A'                 
 30.093  30.126  40.546  40.845  80.082  80.136  80.165  80.330
179 A'  180 A'  181 A'  182 A'  183 A'  184 A'  185 A'  186 A'                 
116.214 116.242 158.922 159.188 321.905 321.954 321.987 322.137
187 A'  188 A'  189 A'  190 A'  191 A'  192 A'  193 A'  194 A'                 
460.314 460.341 631.642 631.8851431.4591431.5031431.5411431.677
195 A'  196 A'  197 A'  198 A'  199 A'  200 A'  201 A'  202 A'                 
*******2012.8152759.0532759.2818749.6808749.7198749.7638749.885
203 A'  204 A'  205 A'  206 A'  207 A'  208 A'  209 A'  210 A'                 
*******************************
211 A'  212 A'  213 A'  214 A'                                                 

 Beta MOs, Unrestricted
 -- Occupied --                  
-20.763 -20.606 -15.739 -15.717 -11.527 -11.492 -11.440 -11.344
  1 A'    2 A'    3 A'    4 A'    5 A'    6 A'    7 A'    8 A'                 
 -1.501  -1.463  -1.369  -1.321  -1.172  -1.015  -0.978  -0.882
  9 A'   10 A'   11 A'   12 A'   13 A'   14 A'   15 A'   16 A'                 
 -0.835  -0.796  -0.786  -0.749  -0.715  -0.692  -0.684  -0.671
 17 A'   18 A'   19 A'    1 A"   20 A'   21 A'    2 A"   22 A'                 
 -0.575  -0.551  -0.533  -0.447
  3 A"    4 A"   23 A'    5 A"                                                 
 -- Virtual --                   
 -0.053  -0.028  -0.001   0.014   0.016   0.019   0.030   0.030
 24 A'    6 A"   25 A'   26 A'    7 A"   27 A'   28 A'   29 A'                 
  0.033   0.034   0.040   0.041   0.046   0.050   0.054   0.057
  8 A"   30 A'    9 A"   31 A'   32 A'   33 A'   34 A'   10 A"                 
  0.057   0.060   0.062   0.066   0.074   0.077   0.080   0.081
 35 A'   36 A'   11 A"   37 A'   12 A"   38 A'   13 A"   39 A'                 
  0.088   0.090   0.093   0.103   0.105   0.110   0.113   0.118
 40 A'   14 A"   41 A'   42 A'   43 A'   15 A"   44 A'   45 A'                 
  0.128   0.129   0.138   0.142   0.150   0.159   0.172   0.173
 46 A'   47 A'   48 A'   49 A'   50 A'   16 A"   17 A"   51 A'                 
  0.181   0.182   0.197   0.205   0.209   0.214   0.216   0.224
 18 A"   52 A'   53 A'   54 A'   55 A'   19 A"   56 A'   57 A'                 
  0.227   0.235   0.237   0.246   0.250   0.259   0.266   0.272
 20 A"   58 A'   59 A'   60 A'   21 A"   61 A'   62 A'   63 A'                 
  0.293   0.304   0.311   0.323   0.326   0.341   0.343   0.347
 64 A'   22 A"   65 A'   66 A'   23 A"   67 A'   68 A'   69 A'                 
  0.377   0.381   0.388   0.389   0.395   0.413   0.419   0.429
 70 A'   71 A'   24 A"   72 A'   73 A'   74 A'   75 A'   76 A'                 
  0.437   0.449   0.460   0.503   0.513   0.537   0.572   0.587
 77 A'   78 A'   79 A'   80 A'   81 A'   82 A'   83 A'   84 A'                 
  0.623   0.673   0.689   0.691   0.708   0.717   0.737   0.741
 85 A'   86 A'   87 A'   25 A"   26 A"   88 A'   89 A'   27 A"                 
  0.758   0.819   0.823   0.875   0.889   0.899   0.929   0.938
 28 A"   90 A'   91 A'   92 A'   93 A'   94 A'   95 A'   96 A'                 
  0.949   0.959   0.983   0.993   1.020   1.033   1.038   1.091
 97 A'   98 A'   29 A"   99 A'  100 A'   30 A"  101 A'  102 A'                 
  1.149   1.158   1.188   1.207   1.210   1.237   1.300   1.303
 31 A"   32 A"  103 A'  104 A'  105 A'   33 A"   34 A"  106 A'                 
  1.324   1.338   1.359   1.379   1.395   1.439   1.447   1.472
107 A'   35 A"   36 A"   37 A"  108 A'  109 A'   38 A"  110 A'                 
  1.507   1.530   1.673   1.685   1.717   1.749   1.787   1.790
111 A'  112 A'  113 A'  114 A'  115 A'   39 A"   40 A"  116 A'                 
  1.827   1.845   1.863   1.885   1.918   1.955   1.962   2.028
117 A'  118 A'   41 A"  119 A'  120 A'   42 A"  121 A'  122 A'                 
  2.058   2.119   2.149   2.150   2.204   2.240   2.260   2.265
123 A'  124 A'  125 A'   43 A"  126 A'  127 A'  128 A'   44 A"                 
  2.405   2.469   2.524   2.554   2.575   2.652   2.728   2.740
129 A'   45 A"  130 A'   46 A"  131 A'   47 A"  132 A'   48 A"                 
  2.761   2.861   2.887   2.919   2.940   2.985   2.995   3.056
133 A'  134 A'  135 A'  136 A'  137 A'   49 A"  138 A'   50 A"                 
  3.087   3.108   3.109   3.115   3.155   3.190   3.238   3.240
139 A'  140 A'   51 A"   52 A"  141 A'  142 A'   53 A"  143 A'                 
  3.251   3.266   3.370   3.442   3.464   3.569   3.642   3.695
 54 A"  144 A'  145 A'   55 A"  146 A'  147 A'  148 A'   56 A"                 
  3.727   3.808   3.875   3.890   3.911   4.017   4.131   4.223
149 A'  150 A'  151 A'  152 A'  153 A'  154 A'  155 A'   57 A"                 
  4.277   4.337   4.376   4.475   4.918   5.033   5.224   5.360
 58 A"  156 A'  157 A'  158 A'  159 A'  160 A'  161 A'  162 A'                 
  5.420   5.433   5.573   5.578   5.594   5.628   5.763   5.789
 59 A"  163 A'   60 A"  164 A'  165 A'  166 A'  167 A'  168 A'                 
  6.151   6.381   7.562   7.622   9.539   9.842  20.535  20.593
169 A'  170 A'  171 A'  172 A'  173 A'  174 A'  175 A'  176 A'                 
 20.628  20.799  30.094  30.126  40.568  40.845  80.081  80.136
177 A'  178 A'  179 A'  180 A'  181 A'  182 A'  183 A'  184 A'                 
 80.166  80.330 116.214 116.243 158.929 159.188 321.905 321.954
185 A'  186 A'  187 A'  188 A'  189 A'  190 A'  191 A'  192 A'                 
321.987 322.138 460.315 460.341 631.644 631.8851431.4591431.503
193 A'  194 A'  195 A'  196 A'  197 A'  198 A'  199 A'  200 A'                 
*******1431.6772012.7902012.8152759.0542759.2818749.6808749.719
201 A'  202 A'  203 A'  204 A'  205 A'  206 A'  207 A'  208 A'                 
*******8749.885********************************
209 A'  210 A'  211 A'  212 A'  213 A'  214 A'                                 
 --------------------------------------------------------------

          Ground-State Mulliken Net Atomic Charges

     Atom                 Charge (a.u.)    Spin (a.u.)
  --------------------------------------------------------
      1 C                     0.492095      -0.428839
      2 H                     0.156170       0.264258
      3 H                    -0.074740       0.375500
      4 H                     0.365274       0.031465
      5 C                     0.013707       0.210065
      6 O                     0.126746      -0.156329
      7 C                    -0.200216      -0.057216
      8 O                     0.421206       1.119191
      9 N                    -0.572653       0.055398
     10 N                    -0.180614      -0.155241
     11 C                    -0.782690       0.657939
     12 H                     0.235714       0.083808
  --------------------------------------------------------
  Sum of atomic charges =    -0.000000
  Sum of spin   charges =     2.000000

 -----------------------------------------------------------------
                    Cartesian Multipole Moments
 -----------------------------------------------------------------
    Charge (ESU x 10^10)
                -0.0000
    Dipole Moment (Debye)
         X       4.6168      Y       7.5058      Z      -0.0000
       Tot       8.8120
    Quadrupole Moments (Debye-Ang)
        XX     -66.9844     XY      -0.2234     YY     -82.9671
        XZ       0.0000     YZ       0.0000     ZZ     -68.7527
    Octopole Moments (Debye-Ang^2)
       XXX      36.6189    XXY      40.5114    XYY      25.8466
       YYY     238.9304    XXZ      -0.0000    XYZ      -0.0000
       YYZ      -0.0000    XZZ       4.1772    YZZ      59.2383
       ZZZ      -0.0000
    Hexadecapole Moments (Debye-Ang^3)
      XXXX    -974.2811   XXXY     -32.6897   XXYY    -433.4732
      XYYY     -86.2625   YYYY   -1633.2881   XXXZ       0.0000
      XXYZ       0.0000   XYYZ       0.0000   YYYZ       0.0000
      XXZZ    -227.7785   XYZZ     -18.3053   YYZZ    -319.1107
      XZZZ       0.0000   YZZZ       0.0000   ZZZZ    -385.8473
 -----------------------------------------------------------------
Archival summary:
1\1\n-62-24-2\SP\ProcedureUnspecified\BasisUnspecified\2244(3)\malop\ThuJun1301:20:112019ThuJun1301:20:112019\0\\#,ProcedureUnspecified,BasisUnspecified,\\0,3\N\H,1,1.01174\C,1,1.39692,2,116.099\O,3,1.22316,1,121.624,2,0,0\N,3,1.37862,1,114.479,2,180,0\H,5,1.01098,3,114.402,1,-180,0\C,1,1.40814,2,121.019,3,-180,0\O,7,1.34844,1,113.229,2,-0,0\C,7,1.40058,1,120.552,2,180,0\H,9,1.08957,7,120.34,1,180,0\C,9,1.38526,7,118.052,1,0,0\H,11,1.08813,9,124.089,7,180,0\\HF=-412.356864\\@

 Total job time:  24567.87s(wall), 23398.64s(cpu) 
 Thu Jun 13 01:20:11 2019

======= MOLDEN-FORMATTED INPUT FILE FOLLOWS =======
[Molden Format]
[Atoms] (Angs)
  C      1    6     -0.00754183     -1.75895763      0.00000000
  H      2    1     -2.09769850     -1.41880678     -0.00000000
  H      3    1     -0.13527422     -2.83956838     -0.00000000
  H      4    1      0.04053511      2.02026369      0.00000000
  C      5    6     -1.22066484      0.39918184     -0.00000000
  O      6    8     -2.25210141      1.05663720     -0.00000000
  C      7    6      1.24009552      0.27789184      0.00000000
  O      8    8      2.33767996      1.06122493      0.00000000
  N      9    7      0.03634586      1.00852936      0.00000000
  N     10    7     -1.18738304     -0.97903470     -0.00000000
  C     11    6      1.22288875     -1.12258096      0.00000000
  H     12    1      2.15640383     -1.68445878      0.00000000

======= END OF MOLDEN-FORMATTED INPUT FILE =======


        *************************************************************
        *                                                           *
        *  Thank you very much for using Q-Chem.  Have a nice day.  *
        *                                                           *
        *************************************************************


