[Molden Format]
[Atoms] (Angs)
  C      1    6     -0.00714236     -1.70213747     -0.00000000
  H      2    1     -2.06882847     -1.44022412      0.00000000
  H      3    1     -0.12337987     -2.77567521      0.00000000
  H      4    1      0.04651892      1.98813947     -0.00000000
  C      5    6     -1.21953563      0.40211669      0.00000000
  O      6    8     -2.25921553      1.03043814      0.00000000
  C      7    6      1.28797806      0.34644937     -0.00000000
  O      8    8      2.31273661      1.00537216     -0.00000000
  N      9    7      0.03446295      0.97739857     -0.00000000
  N     10    7     -1.17287765     -0.98229824      0.00000000
  C     11    6      1.20107039     -1.10433419     -0.00000000
  H     12    1      2.11220096     -1.67699125     -0.00000000
[GTO]
1    0
S    1    1.000000
   4.56324000E+03    1.96665000E-03 
S    1    1.000000
   6.82024000E+02    1.52306000E-02 
S    1    1.000000
   1.54973000E+02    7.61269000E-02 
S    1    1.000000
   4.44553000E+01    2.60801000E-01 
S    1    1.000000
   1.30290000E+01    6.16462000E-01 
S    1    1.000000
   1.82773000E+00    2.21006000E-01 
SP   3    1.000000
   2.09642000E+01    1.14660000E-01   4.02487000E-02 
   4.80331000E+00    9.19999000E-01   2.37594000E-01 
   1.45933000E+00   -3.03068000E-03   8.15854000E-01 
SP   1    1.000000
   4.83456000E-01    1.00000000E+00   1.00000000E+00 
SP   1    1.000000
   1.45585000E-01    1.00000000E+00   1.00000000E+00 
SP   1    1.000000
   4.38000000E-02    1.00000000E+00   1.00000000E+00 
SP   1    1.000000
   1.31927711E-02    1.00000000E+00   1.00000000E+00 
D    1    1.000000
   6.26000000E-01    1.00000000E+00 

2    0
S    3    1.000000
   3.38650000E+01    2.54938000E-02 
   5.09479000E+00    1.90373000E-01 
   1.15879000E+00    8.52161000E-01 
S    1    1.000000
   3.25840000E-01    1.00000000E+00 
S    1    1.000000
   1.02741000E-01    1.00000000E+00 
S    1    1.000000
   3.60000000E-02    1.00000000E+00 
P    1    1.000000
   7.50000000E-01    1.00000000E+00 

3    0
S    3    1.000000
   3.38650000E+01    2.54938000E-02 
   5.09479000E+00    1.90373000E-01 
   1.15879000E+00    8.52161000E-01 
S    1    1.000000
   3.25840000E-01    1.00000000E+00 
S    1    1.000000
   1.02741000E-01    1.00000000E+00 
S    1    1.000000
   3.60000000E-02    1.00000000E+00 
P    1    1.000000
   7.50000000E-01    1.00000000E+00 

4    0
S    3    1.000000
   3.38650000E+01    2.54938000E-02 
   5.09479000E+00    1.90373000E-01 
   1.15879000E+00    8.52161000E-01 
S    1    1.000000
   3.25840000E-01    1.00000000E+00 
S    1    1.000000
   1.02741000E-01    1.00000000E+00 
S    1    1.000000
   3.60000000E-02    1.00000000E+00 
P    1    1.000000
   7.50000000E-01    1.00000000E+00 

5    0
S    1    1.000000
   4.56324000E+03    1.96665000E-03 
S    1    1.000000
   6.82024000E+02    1.52306000E-02 
S    1    1.000000
   1.54973000E+02    7.61269000E-02 
S    1    1.000000
   4.44553000E+01    2.60801000E-01 
S    1    1.000000
   1.30290000E+01    6.16462000E-01 
S    1    1.000000
   1.82773000E+00    2.21006000E-01 
SP   3    1.000000
   2.09642000E+01    1.14660000E-01   4.02487000E-02 
   4.80331000E+00    9.19999000E-01   2.37594000E-01 
   1.45933000E+00   -3.03068000E-03   8.15854000E-01 
SP   1    1.000000
   4.83456000E-01    1.00000000E+00   1.00000000E+00 
SP   1    1.000000
   1.45585000E-01    1.00000000E+00   1.00000000E+00 
SP   1    1.000000
   4.38000000E-02    1.00000000E+00   1.00000000E+00 
SP   1    1.000000
   1.31927711E-02    1.00000000E+00   1.00000000E+00 
D    1    1.000000
   6.26000000E-01    1.00000000E+00 

6    0
S    1    1.000000
   8.58850000E+03    1.89515000E-03 
S    1    1.000000
   1.29723000E+03    1.43859000E-02 
S    1    1.000000
   2.99296000E+02    7.07320000E-02 
S    1    1.000000
   8.73771000E+01    2.40001000E-01 
S    1    1.000000
   2.56789000E+01    5.94797000E-01 
S    1    1.000000
   3.74004000E+00    2.80802000E-01 
SP   3    1.000000
   4.21175000E+01    1.13889000E-01   3.65114000E-02 
   9.62837000E+00    9.20811000E-01   2.37153000E-01 
   2.85332000E+00   -3.27447000E-03   8.19702000E-01 
SP   1    1.000000
   9.05661000E-01    1.00000000E+00   1.00000000E+00 
SP   1    1.000000
   2.55611000E-01    1.00000000E+00   1.00000000E+00 
SP   1    1.000000
   8.45000000E-02    1.00000000E+00   1.00000000E+00 
SP   1    1.000000
   2.54518072E-02    1.00000000E+00   1.00000000E+00 
D    1    1.000000
   1.29200000E+00    1.00000000E+00 

7    0
S    1    1.000000
   4.56324000E+03    1.96665000E-03 
S    1    1.000000
   6.82024000E+02    1.52306000E-02 
S    1    1.000000
   1.54973000E+02    7.61269000E-02 
S    1    1.000000
   4.44553000E+01    2.60801000E-01 
S    1    1.000000
   1.30290000E+01    6.16462000E-01 
S    1    1.000000
   1.82773000E+00    2.21006000E-01 
SP   3    1.000000
   2.09642000E+01    1.14660000E-01   4.02487000E-02 
   4.80331000E+00    9.19999000E-01   2.37594000E-01 
   1.45933000E+00   -3.03068000E-03   8.15854000E-01 
SP   1    1.000000
   4.83456000E-01    1.00000000E+00   1.00000000E+00 
SP   1    1.000000
   1.45585000E-01    1.00000000E+00   1.00000000E+00 
SP   1    1.000000
   4.38000000E-02    1.00000000E+00   1.00000000E+00 
SP   1    1.000000
   1.31927711E-02    1.00000000E+00   1.00000000E+00 
D    1    1.000000
   6.26000000E-01    1.00000000E+00 

8    0
S    1    1.000000
   8.58850000E+03    1.89515000E-03 
S    1    1.000000
   1.29723000E+03    1.43859000E-02 
S    1    1.000000
   2.99296000E+02    7.07320000E-02 
S    1    1.000000
   8.73771000E+01    2.40001000E-01 
S    1    1.000000
   2.56789000E+01    5.94797000E-01 
S    1    1.000000
   3.74004000E+00    2.80802000E-01 
SP   3    1.000000
   4.21175000E+01    1.13889000E-01   3.65114000E-02 
   9.62837000E+00    9.20811000E-01   2.37153000E-01 
   2.85332000E+00   -3.27447000E-03   8.19702000E-01 
SP   1    1.000000
   9.05661000E-01    1.00000000E+00   1.00000000E+00 
SP   1    1.000000
   2.55611000E-01    1.00000000E+00   1.00000000E+00 
SP   1    1.000000
   8.45000000E-02    1.00000000E+00   1.00000000E+00 
SP   1    1.000000
   2.54518072E-02    1.00000000E+00   1.00000000E+00 
D    1    1.000000
   1.29200000E+00    1.00000000E+00 

9    0
S    1    1.000000
   6.29348000E+03    1.96979000E-03 
S    1    1.000000
   9.49044000E+02    1.49613000E-02 
S    1    1.000000
   2.18776000E+02    7.35006000E-02 
S    1    1.000000
   6.36916000E+01    2.48937000E-01 
S    1    1.000000
   1.88282000E+01    6.02460000E-01 
S    1    1.000000
   2.72023000E+00    2.56202000E-01 
SP   3    1.000000
   3.06331000E+01    1.11906000E-01   3.83119000E-02 
   7.02614000E+00    9.21666000E-01   2.37403000E-01 
   2.11205000E+00   -2.56919000E-03   8.17592000E-01 
SP   1    1.000000
   6.84009000E-01    1.00000000E+00   1.00000000E+00 
SP   1    1.000000
   2.00878000E-01    1.00000000E+00   1.00000000E+00 
SP   1    1.000000
   6.39000000E-02    1.00000000E+00   1.00000000E+00 
SP   1    1.000000
   1.92469880E-02    1.00000000E+00   1.00000000E+00 
D    1    1.000000
   9.13000000E-01    1.00000000E+00 

10    0
S    1    1.000000
   6.29348000E+03    1.96979000E-03 
S    1    1.000000
   9.49044000E+02    1.49613000E-02 
S    1    1.000000
   2.18776000E+02    7.35006000E-02 
S    1    1.000000
   6.36916000E+01    2.48937000E-01 
S    1    1.000000
   1.88282000E+01    6.02460000E-01 
S    1    1.000000
   2.72023000E+00    2.56202000E-01 
SP   3    1.000000
   3.06331000E+01    1.11906000E-01   3.83119000E-02 
   7.02614000E+00    9.21666000E-01   2.37403000E-01 
   2.11205000E+00   -2.56919000E-03   8.17592000E-01 
SP   1    1.000000
   6.84009000E-01    1.00000000E+00   1.00000000E+00 
SP   1    1.000000
   2.00878000E-01    1.00000000E+00   1.00000000E+00 
SP   1    1.000000
   6.39000000E-02    1.00000000E+00   1.00000000E+00 
SP   1    1.000000
   1.92469880E-02    1.00000000E+00   1.00000000E+00 
D    1    1.000000
   9.13000000E-01    1.00000000E+00 

11    0
S    1    1.000000
   4.56324000E+03    1.96665000E-03 
S    1    1.000000
   6.82024000E+02    1.52306000E-02 
S    1    1.000000
   1.54973000E+02    7.61269000E-02 
S    1    1.000000
   4.44553000E+01    2.60801000E-01 
S    1    1.000000
   1.30290000E+01    6.16462000E-01 
S    1    1.000000
   1.82773000E+00    2.21006000E-01 
SP   3    1.000000
   2.09642000E+01    1.14660000E-01   4.02487000E-02 
   4.80331000E+00    9.19999000E-01   2.37594000E-01 
   1.45933000E+00   -3.03068000E-03   8.15854000E-01 
SP   1    1.000000
   4.83456000E-01    1.00000000E+00   1.00000000E+00 
SP   1    1.000000
   1.45585000E-01    1.00000000E+00   1.00000000E+00 
SP   1    1.000000
   4.38000000E-02    1.00000000E+00   1.00000000E+00 
SP   1    1.000000
   1.31927711E-02    1.00000000E+00   1.00000000E+00 
D    1    1.000000
   6.26000000E-01    1.00000000E+00 

12    0
S    3    1.000000
   3.38650000E+01    2.54938000E-02 
   5.09479000E+00    1.90373000E-01 
   1.15879000E+00    8.52161000E-01 
S    1    1.000000
   3.25840000E-01    1.00000000E+00 
S    1    1.000000
   1.02741000E-01    1.00000000E+00 
S    1    1.000000
   3.60000000E-02    1.00000000E+00 
P    1    1.000000
   7.50000000E-01    1.00000000E+00 

[MO]
Sym=X
Ene=0.929794
Spin=Alpha
Occup=1
1    -1.51596753e-06
2    -7.63209148e-06
3    -2.5952826e-05
4    -6.48716669e-05
5    -4.44830188e-05
6    -7.10820684e-05
7    1.55118173e-05
8    -7.89164653e-06
9    8.65530415e-16
10    5.12489333e-05
11    -7.87963608e-05
12    2.50239347e-05
13    3.19339251e-15
14    -0.000323444025
15    8.79674668e-05
16    -0.000143217922
17    2.04191856e-15
18    0.00323559214
19    0.000493223342
20    0.00127918875
21    2.04838929e-14
22    0.000311261107
23    -0.000212479728
24    7.91514719e-05
25    6.04409841e-14
26    -5.5910187e-05
27    2.05787591e-16
28    1.61976792e-05
29    1.59981421e-15
30    -4.30167352e-07
31    3.275547e-05
32    1.22702727e-05
33    2.62620392e-05
34    0.000106712573
35    3.82882705e-05
36    2.18550618e-05
37    -9.05301864e-16
38    1.14681111e-05
39    4.94142977e-06
40    -2.27374455e-05
41    0.000866670194
42    -8.29661113e-06
43    1.04933186e-05
44    2.03787819e-16
45    3.06809005e-05
46    4.70174321e-05
47    -0.000105635362
48    -4.83884741e-05
49    -6.12172848e-06
50    -4.77739817e-05
51    -3.66605659e-16
52    0.00110956928
53    0.00858970183
54    0.0428506301
55    0.147114538
56    0.347565391
57    0.126418237
58    0.465482374
59    0.000643626822
60    -0.000449464567
61    -3.37679224e-15
62    0.00162765281
63    -0.000736260351
64    0.000482695145
65    -9.92786047e-15
66    0.00142892065
67    0.000374937212
68    -0.000206428677
69    -1.68209228e-16
70    -0.000414176679
71    -0.000717031166
72    0.00047323002
73    -1.9361104e-14
74    -0.00073326462
75    -1.94634724e-05
76    0.000106913365
77    -2.52995953e-14
78    -0.000277843293
79    -1.34687025e-15
80    -0.000241988221
81    2.06867051e-15
82    0.000158247718
83    -3.82016499e-07
84    -2.81083684e-06
85    -1.46565531e-05
86    -4.70911709e-05
87    -0.000138709643
88    -0.000181217746
89    -0.000202104732
90    0.000211772545
91    -0.000128239622
92    -3.71723524e-15
93    0.000595196385
94    0.000535197395
95    -0.000320753954
96    -5.97679904e-15
97    -0.000256748997
98    -0.000239880108
99    0.000137781969
100    -1.00644478e-14
101    0.000148516764
102    0.000284611867
103    -0.000152703951
104    -5.9193582e-15
105    -0.000894997789
106    -0.000144680721
107    0.000109819767
108    2.37632552e-14
109    -0.000239554788
110    8.44350957e-16
111    -0.000116367785
112    -6.99889806e-16
113    0.000126479882
114    -3.84870127e-07
115    -2.9612311e-06
116    -1.49001442e-05
117    -5.06658848e-05
118    -0.000124988593
119    -6.99267829e-05
120    -0.000146459501
121    1.7976312e-05
122    -2.80703124e-06
123    3.2188189e-15
124    4.43346278e-05
125    -5.22881169e-05
126    9.39851514e-06
127    7.23204471e-15
128    5.77290495e-05
129    0.000388873806
130    0.000130315334
131    5.57006193e-15
132    0.00333890724
133    -0.000433499274
134    -0.000850438328
135    5.39161076e-14
136    0.000588409803
137    -0.000130849555
138    -0.000125137775
139    2.42602471e-14
140    -9.78723558e-06
141    -6.29279707e-16
142    4.5805096e-06
143    1.12726533e-15
144    3.87320656e-05
145    -1.57215689e-09
146    1.60204417e-09
147    -9.05671334e-08
148    6.04085764e-08
149    -3.38260421e-06
150    -1.31945954e-05
151    7.13138881e-06
152    1.4950358e-06
153    8.81715273e-07
154    2.39468498e-15
155    3.46720761e-05
156    -2.17427329e-05
157    -1.58666059e-06
158    3.31386785e-15
159    -0.000135250035
160    6.33078753e-05
161    5.36265518e-05
162    9.82497095e-15
163    -0.000642985159
164    0.000218899976
165    0.000110907588
166    8.89038376e-16
167    -7.17565326e-05
168    3.13840953e-05
169    0.000112794133
170    -3.65214136e-15
171    -2.90381653e-06
172    -4.99721033e-16
173    5.63835187e-07
174    -5.41355495e-16
175    5.41391853e-06
176    -3.05114976e-07
177    -2.18909951e-06
178    -1.18027475e-05
179    -3.64360833e-05
180    -0.000124241151
181    -0.000225397295
182    -8.82698733e-05
183    -7.35588713e-05
184    -4.39665508e-05
185    3.34322424e-16
186    0.000547787498
187    -0.000626515075
188    -0.000292736259
189    -2.09267584e-15
190    -7.69136504e-05
191    0.000191675911
192    -1.60703848e-05
193    4.27008765e-15
194    -0.000376962119
195    0.000481730819
196    0.000262650365
197    -1.40022662e-14
198    1.25055163e-05
199    -0.000100715779
200    2.66440529e-05
201    1.58943622e-14
202    0.000228980614
203    1.00576026e-16
204    -9.85923505e-05
205    1.64205653e-15
206    0.000207347995
207    -2.97849879e-07
208    -2.12841013e-06
209    -1.15425404e-05
210    -3.54000221e-05
211    -0.000123039389
212    -0.00022768663
213    -8.16351109e-05
214    7.13785575e-06
215    8.12097008e-05
216    -1.65947518e-15
217    0.00054826952
218    -3.41907406e-05
219    0.000704036974
220    -1.31499105e-15
221    -7.07237733e-05
222    6.05080684e-05
223    -0.000169455715
224    -7.81975215e-15
225    -0.000439490013
226    9.83363534e-05
227    -0.0002343641
228    5.63012685e-15
229    8.86440899e-05
230    -0.000141445401
231    0.000302753207
232    -2.73508412e-14
233    -2.71246957e-05
234    -1.07454646e-15
235    -0.000101181318
236    7.21224003e-16
237    -0.000316884863
238    -6.15312055e-08
239    -4.49459657e-07
240    -2.43614229e-06
241    -7.61597216e-06
242    -2.5208954e-05
243    -3.95336402e-05
244    -8.1165629e-06
245    8.50470604e-06
246    -2.90912523e-06
247    3.84273648e-15
248    7.41502649e-05
249    -6.82229245e-05
250    1.83733374e-05
251    5.76295241e-15
252    0.000126533164
253    -0.000116221699
254    5.75565669e-05
255    1.28909165e-14
256    -0.00537874872
257    0.000899649863
258    -0.000563169002
259    -2.06638481e-14
260    -7.83424742e-05
261    7.77247429e-05
262    -3.86889346e-05
263    -3.1003328e-14
264    2.44021251e-05
265    6.26238566e-16
266    1.71367326e-06
267    2.14315057e-16
268    2.45539996e-06
269    4.93110995e-06
270    5.23234528e-05
271    1.02879342e-05
272    -0.000106556147
273    -1.37876124e-05
274    7.27171364e-06
275    2.20399164e-15
[5D]