[Molden Format]
[Atoms] (Angs)
  C      1    6     -0.00714236     -1.70213747     -0.00000000
  H      2    1     -2.06882847     -1.44022412      0.00000000
  H      3    1     -0.12337987     -2.77567521      0.00000000
  H      4    1      0.04651892      1.98813947     -0.00000000
  C      5    6     -1.21953563      0.40211669      0.00000000
  O      6    8     -2.25921553      1.03043814      0.00000000
  C      7    6      1.28797806      0.34644937     -0.00000000
  O      8    8      2.31273661      1.00537216     -0.00000000
  N      9    7      0.03446295      0.97739857     -0.00000000
  N     10    7     -1.17287765     -0.98229824      0.00000000
  C     11    6      1.20107039     -1.10433419     -0.00000000
  H     12    1      2.11220096     -1.67699125     -0.00000000
[GTO]
1    0
S    1    1.000000
   4.56324000E+03    1.96665000E-03 
S    1    1.000000
   6.82024000E+02    1.52306000E-02 
S    1    1.000000
   1.54973000E+02    7.61269000E-02 
S    1    1.000000
   4.44553000E+01    2.60801000E-01 
S    1    1.000000
   1.30290000E+01    6.16462000E-01 
S    1    1.000000
   1.82773000E+00    2.21006000E-01 
SP   3    1.000000
   2.09642000E+01    1.14660000E-01   4.02487000E-02 
   4.80331000E+00    9.19999000E-01   2.37594000E-01 
   1.45933000E+00   -3.03068000E-03   8.15854000E-01 
SP   1    1.000000
   4.83456000E-01    1.00000000E+00   1.00000000E+00 
SP   1    1.000000
   1.45585000E-01    1.00000000E+00   1.00000000E+00 
SP   1    1.000000
   4.38000000E-02    1.00000000E+00   1.00000000E+00 
SP   1    1.000000
   1.31927711E-02    1.00000000E+00   1.00000000E+00 
D    1    1.000000
   6.26000000E-01    1.00000000E+00 

2    0
S    3    1.000000
   3.38650000E+01    2.54938000E-02 
   5.09479000E+00    1.90373000E-01 
   1.15879000E+00    8.52161000E-01 
S    1    1.000000
   3.25840000E-01    1.00000000E+00 
S    1    1.000000
   1.02741000E-01    1.00000000E+00 
S    1    1.000000
   3.60000000E-02    1.00000000E+00 
P    1    1.000000
   7.50000000E-01    1.00000000E+00 

3    0
S    3    1.000000
   3.38650000E+01    2.54938000E-02 
   5.09479000E+00    1.90373000E-01 
   1.15879000E+00    8.52161000E-01 
S    1    1.000000
   3.25840000E-01    1.00000000E+00 
S    1    1.000000
   1.02741000E-01    1.00000000E+00 
S    1    1.000000
   3.60000000E-02    1.00000000E+00 
P    1    1.000000
   7.50000000E-01    1.00000000E+00 

4    0
S    3    1.000000
   3.38650000E+01    2.54938000E-02 
   5.09479000E+00    1.90373000E-01 
   1.15879000E+00    8.52161000E-01 
S    1    1.000000
   3.25840000E-01    1.00000000E+00 
S    1    1.000000
   1.02741000E-01    1.00000000E+00 
S    1    1.000000
   3.60000000E-02    1.00000000E+00 
P    1    1.000000
   7.50000000E-01    1.00000000E+00 

5    0
S    1    1.000000
   4.56324000E+03    1.96665000E-03 
S    1    1.000000
   6.82024000E+02    1.52306000E-02 
S    1    1.000000
   1.54973000E+02    7.61269000E-02 
S    1    1.000000
   4.44553000E+01    2.60801000E-01 
S    1    1.000000
   1.30290000E+01    6.16462000E-01 
S    1    1.000000
   1.82773000E+00    2.21006000E-01 
SP   3    1.000000
   2.09642000E+01    1.14660000E-01   4.02487000E-02 
   4.80331000E+00    9.19999000E-01   2.37594000E-01 
   1.45933000E+00   -3.03068000E-03   8.15854000E-01 
SP   1    1.000000
   4.83456000E-01    1.00000000E+00   1.00000000E+00 
SP   1    1.000000
   1.45585000E-01    1.00000000E+00   1.00000000E+00 
SP   1    1.000000
   4.38000000E-02    1.00000000E+00   1.00000000E+00 
SP   1    1.000000
   1.31927711E-02    1.00000000E+00   1.00000000E+00 
D    1    1.000000
   6.26000000E-01    1.00000000E+00 

6    0
S    1    1.000000
   8.58850000E+03    1.89515000E-03 
S    1    1.000000
   1.29723000E+03    1.43859000E-02 
S    1    1.000000
   2.99296000E+02    7.07320000E-02 
S    1    1.000000
   8.73771000E+01    2.40001000E-01 
S    1    1.000000
   2.56789000E+01    5.94797000E-01 
S    1    1.000000
   3.74004000E+00    2.80802000E-01 
SP   3    1.000000
   4.21175000E+01    1.13889000E-01   3.65114000E-02 
   9.62837000E+00    9.20811000E-01   2.37153000E-01 
   2.85332000E+00   -3.27447000E-03   8.19702000E-01 
SP   1    1.000000
   9.05661000E-01    1.00000000E+00   1.00000000E+00 
SP   1    1.000000
   2.55611000E-01    1.00000000E+00   1.00000000E+00 
SP   1    1.000000
   8.45000000E-02    1.00000000E+00   1.00000000E+00 
SP   1    1.000000
   2.54518072E-02    1.00000000E+00   1.00000000E+00 
D    1    1.000000
   1.29200000E+00    1.00000000E+00 

7    0
S    1    1.000000
   4.56324000E+03    1.96665000E-03 
S    1    1.000000
   6.82024000E+02    1.52306000E-02 
S    1    1.000000
   1.54973000E+02    7.61269000E-02 
S    1    1.000000
   4.44553000E+01    2.60801000E-01 
S    1    1.000000
   1.30290000E+01    6.16462000E-01 
S    1    1.000000
   1.82773000E+00    2.21006000E-01 
SP   3    1.000000
   2.09642000E+01    1.14660000E-01   4.02487000E-02 
   4.80331000E+00    9.19999000E-01   2.37594000E-01 
   1.45933000E+00   -3.03068000E-03   8.15854000E-01 
SP   1    1.000000
   4.83456000E-01    1.00000000E+00   1.00000000E+00 
SP   1    1.000000
   1.45585000E-01    1.00000000E+00   1.00000000E+00 
SP   1    1.000000
   4.38000000E-02    1.00000000E+00   1.00000000E+00 
SP   1    1.000000
   1.31927711E-02    1.00000000E+00   1.00000000E+00 
D    1    1.000000
   6.26000000E-01    1.00000000E+00 

8    0
S    1    1.000000
   8.58850000E+03    1.89515000E-03 
S    1    1.000000
   1.29723000E+03    1.43859000E-02 
S    1    1.000000
   2.99296000E+02    7.07320000E-02 
S    1    1.000000
   8.73771000E+01    2.40001000E-01 
S    1    1.000000
   2.56789000E+01    5.94797000E-01 
S    1    1.000000
   3.74004000E+00    2.80802000E-01 
SP   3    1.000000
   4.21175000E+01    1.13889000E-01   3.65114000E-02 
   9.62837000E+00    9.20811000E-01   2.37153000E-01 
   2.85332000E+00   -3.27447000E-03   8.19702000E-01 
SP   1    1.000000
   9.05661000E-01    1.00000000E+00   1.00000000E+00 
SP   1    1.000000
   2.55611000E-01    1.00000000E+00   1.00000000E+00 
SP   1    1.000000
   8.45000000E-02    1.00000000E+00   1.00000000E+00 
SP   1    1.000000
   2.54518072E-02    1.00000000E+00   1.00000000E+00 
D    1    1.000000
   1.29200000E+00    1.00000000E+00 

9    0
S    1    1.000000
   6.29348000E+03    1.96979000E-03 
S    1    1.000000
   9.49044000E+02    1.49613000E-02 
S    1    1.000000
   2.18776000E+02    7.35006000E-02 
S    1    1.000000
   6.36916000E+01    2.48937000E-01 
S    1    1.000000
   1.88282000E+01    6.02460000E-01 
S    1    1.000000
   2.72023000E+00    2.56202000E-01 
SP   3    1.000000
   3.06331000E+01    1.11906000E-01   3.83119000E-02 
   7.02614000E+00    9.21666000E-01   2.37403000E-01 
   2.11205000E+00   -2.56919000E-03   8.17592000E-01 
SP   1    1.000000
   6.84009000E-01    1.00000000E+00   1.00000000E+00 
SP   1    1.000000
   2.00878000E-01    1.00000000E+00   1.00000000E+00 
SP   1    1.000000
   6.39000000E-02    1.00000000E+00   1.00000000E+00 
SP   1    1.000000
   1.92469880E-02    1.00000000E+00   1.00000000E+00 
D    1    1.000000
   9.13000000E-01    1.00000000E+00 

10    0
S    1    1.000000
   6.29348000E+03    1.96979000E-03 
S    1    1.000000
   9.49044000E+02    1.49613000E-02 
S    1    1.000000
   2.18776000E+02    7.35006000E-02 
S    1    1.000000
   6.36916000E+01    2.48937000E-01 
S    1    1.000000
   1.88282000E+01    6.02460000E-01 
S    1    1.000000
   2.72023000E+00    2.56202000E-01 
SP   3    1.000000
   3.06331000E+01    1.11906000E-01   3.83119000E-02 
   7.02614000E+00    9.21666000E-01   2.37403000E-01 
   2.11205000E+00   -2.56919000E-03   8.17592000E-01 
SP   1    1.000000
   6.84009000E-01    1.00000000E+00   1.00000000E+00 
SP   1    1.000000
   2.00878000E-01    1.00000000E+00   1.00000000E+00 
SP   1    1.000000
   6.39000000E-02    1.00000000E+00   1.00000000E+00 
SP   1    1.000000
   1.92469880E-02    1.00000000E+00   1.00000000E+00 
D    1    1.000000
   9.13000000E-01    1.00000000E+00 

11    0
S    1    1.000000
   4.56324000E+03    1.96665000E-03 
S    1    1.000000
   6.82024000E+02    1.52306000E-02 
S    1    1.000000
   1.54973000E+02    7.61269000E-02 
S    1    1.000000
   4.44553000E+01    2.60801000E-01 
S    1    1.000000
   1.30290000E+01    6.16462000E-01 
S    1    1.000000
   1.82773000E+00    2.21006000E-01 
SP   3    1.000000
   2.09642000E+01    1.14660000E-01   4.02487000E-02 
   4.80331000E+00    9.19999000E-01   2.37594000E-01 
   1.45933000E+00   -3.03068000E-03   8.15854000E-01 
SP   1    1.000000
   4.83456000E-01    1.00000000E+00   1.00000000E+00 
SP   1    1.000000
   1.45585000E-01    1.00000000E+00   1.00000000E+00 
SP   1    1.000000
   4.38000000E-02    1.00000000E+00   1.00000000E+00 
SP   1    1.000000
   1.31927711E-02    1.00000000E+00   1.00000000E+00 
D    1    1.000000
   6.26000000E-01    1.00000000E+00 

12    0
S    3    1.000000
   3.38650000E+01    2.54938000E-02 
   5.09479000E+00    1.90373000E-01 
   1.15879000E+00    8.52161000E-01 
S    1    1.000000
   3.25840000E-01    1.00000000E+00 
S    1    1.000000
   1.02741000E-01    1.00000000E+00 
S    1    1.000000
   3.60000000E-02    1.00000000E+00 
P    1    1.000000
   7.50000000E-01    1.00000000E+00 

[MO]
Sym=X
Ene=2e-05
Spin=Alpha
Occup=1
1    -0.00155819467
2    -0.00777304858
3    -0.0266871141
4    -0.0630469669
5    -0.0230385083
6    -0.0844267348
7    0.000217005293
8    -4.92421822e-05
9    9.75061283e-16
10    -7.79890128e-05
11    7.28348478e-05
12    0.000176438998
13    -3.16742403e-15
14    -0.000527892836
15    -0.000124327935
16    -0.000183341699
17    5.77672646e-15
18    -0.00319748837
19    -3.70019099e-05
20    -0.00134215426
21    -3.05573073e-14
22    -7.53600374e-05
23    0.00013411467
24    -0.000282708901
25    -6.68410857e-14
26    8.87126182e-05
27    4.76529127e-16
28    3.39387247e-05
29    2.58944777e-16
30    4.93171312e-05
31    5.69890104e-07
32    -3.20216893e-05
33    0.000214695333
34    0.000381373545
35    -1.11630985e-05
36    -1.28837325e-05
37    -2.85632295e-16
38    -6.45389783e-05
39    1.50873924e-05
40    -0.000180553389
41    -0.000439052287
42    2.43280128e-05
43    -2.26084121e-05
44    3.1982263e-16
45    2.09896143e-05
46    5.51519323e-05
47    0.000102124919
48    -0.000192946122
49    -9.35025076e-06
50    -2.68469842e-05
51    -2.6912338e-16
52    -0.000254263419
53    -0.00196834628
54    -0.00981949691
55    -0.0337114831
56    -0.0796524911
57    -0.0290025151
58    -0.106648069
59    -0.000164707714
60    9.78927204e-05
61    -1.47858279e-15
62    -0.000309226327
63    0.000209688105
64    -0.000102172431
65    3.64691465e-16
66    -0.000560020124
67    -0.000533612373
68    0.000256629743
69    -4.98390332e-15
70    0.000532339991
71    5.13549734e-05
72    -0.000476157496
73    -1.43872803e-14
74    -0.000335657324
75    -0.000219734857
76    -7.78278719e-05
77    1.6268774e-15
78    6.97688074e-05
79    2.58411685e-16
80    5.93231805e-05
81    4.57472246e-16
82    7.84940863e-06
83    3.43329663e-07
84    2.59913904e-06
85    1.2877782e-05
86    4.34378984e-05
87    0.000110185836
88    7.07309192e-05
89    0.000167104305
90    -4.87608662e-05
91    3.00110603e-05
92    -6.66539619e-16
93    -0.000108664336
94    -0.000106443826
95    7.5519989e-05
96    -5.34818507e-16
97    -7.58681803e-05
98    -5.1833959e-06
99    1.82809173e-05
100    -3.40056406e-15
101    -0.000695579298
102    -0.000287617843
103    8.93294543e-05
104    3.45335836e-15
105    0.000217214802
106    0.000140854484
107    0.000185452964
108    -1.93497086e-14
109    5.97086802e-05
110    6.92883331e-16
111    2.81374501e-05
112    -1.51513147e-16
113    -2.35485218e-05
114    0.00102173448
115    0.00790973907
116    0.0394583678
117    0.135467406
118    0.320044463
119    0.116421485
120    0.428627428
121    -0.000687386047
122    0.000428190355
123    3.30859003e-16
124    0.00161014546
125    0.000756562802
126    -0.000367942012
127    2.174137e-15
128    0.00120017456
129    -0.000189047271
130    0.000609370215
131    6.21791148e-16
132    -0.00334114788
133    0.000362223834
134    0.00263378542
135    -4.01700478e-14
136    -0.000463330019
137    -0.000308649308
138    8.94229892e-05
139    -1.10040622e-14
140    0.000322742363
141    1.01685716e-16
142    -0.000253262936
143    6.89965515e-17
144    -0.000137251107
145    4.77446629e-06
146    3.64218757e-05
147    0.000177681247
148    0.000607632576
149    0.00147926637
150    0.000576806862
151    0.00213946399
152    -0.00019542964
153    -0.000125554044
154    7.12725901e-16
155    0.000627769967
156    -0.00051548793
157    -0.000347107801
158    1.336634e-16
159    -0.000288141447
160    0.00022695584
161    9.34059653e-05
162    -1.23372653e-15
163    -0.000370828536
164    -8.28840404e-05
165    -0.000184474676
166    1.18756741e-14
167    -0.00244807912
168    0.000622834885
169    6.72524476e-05
170    -4.92923419e-15
171    0.00024294512
172    5.24163046e-17
173    -0.000106259236
174    -2.9306846e-17
175    9.80523787e-05
176    -2.16066303e-05
177    -0.000164368985
178    -0.000806474512
179    -0.00273351998
180    -0.00664686941
181    -0.00300826543
182    -0.00914466137
183    5.53789294e-05
184    -2.03674811e-05
185    -6.53212205e-16
186    0.000316154481
187    0.000804359663
188    -0.000241459612
189    2.95224507e-15
190    0.000141504088
191    -0.000232720792
192    -0.000200398278
193    -6.27785901e-15
194    -0.000963749392
195    -0.00114137322
196    -3.4552685e-05
197    2.42542222e-14
198    0.00039593383
199    0.000808023988
200    6.30263668e-05
201    1.24479323e-14
202    -0.000309334614
203    3.29527411e-17
204    -9.31908586e-05
205    5.51045726e-16
206    0.000154810958
207    9.18627791e-06
208    6.99282466e-05
209    0.00034279588
210    0.00116317146
211    0.0028174413
212    0.00124874637
213    0.00392018474
214    -2.56769302e-05
215    -1.01470076e-05
216    -1.35481196e-15
217    -0.000133675381
218    -7.58174757e-05
219    -8.45054228e-05
220    -2.61803321e-16
221    9.89760638e-05
222    7.19411937e-06
223    0.000107734116
224    -4.63341191e-15
225    0.000730255617
226    0.000602964222
227    0.000134764009
228    6.65648955e-15
229    0.000931367521
230    9.45386358e-05
231    0.000299814476
232    5.10783038e-14
233    5.0243595e-05
234    2.17025749e-16
235    4.08577097e-05
236    -4.38689831e-17
237    4.69893621e-05
238    0.000284973942
239    0.00220617689
240    0.0110051338
241    0.0377853225
242    0.0892571308
243    0.0326030727
244    0.119461839
245    -2.24885708e-05
246    0.00015581166
247    5.53936353e-16
248    0.000688863856
249    0.000115927077
250    0.00042639794
251    6.0753568e-16
252    0.000412499397
253    -0.000240696528
254    -5.99981586e-05
255    -1.24138212e-15
256    0.00774189164
257    -0.000697721149
258    0.00182284161
259    3.21187438e-14
260    0.000698092138
261    0.000138338061
262    0.00043766075
263    4.82656343e-14
264    1.48114613e-05
265    3.47238783e-16
266    -5.43985801e-05
267    8.57455343e-17
268    -0.00026632234
269    0.000113786356
270    0.000183414405
271    -2.8793594e-05
272    0.000439957019
273    -8.31201032e-05
274    0.000106469384
275    1.50785857e-16
[5D]