[Molden Format]
[Atoms] (Angs)
  C      1    6     -0.00714236     -1.70213747     -0.00000000
  H      2    1     -2.06882847     -1.44022412      0.00000000
  H      3    1     -0.12337987     -2.77567521      0.00000000
  H      4    1      0.04651892      1.98813947     -0.00000000
  C      5    6     -1.21953563      0.40211669      0.00000000
  O      6    8     -2.25921553      1.03043814      0.00000000
  C      7    6      1.28797806      0.34644937     -0.00000000
  O      8    8      2.31273661      1.00537216     -0.00000000
  N      9    7      0.03446295      0.97739857     -0.00000000
  N     10    7     -1.17287765     -0.98229824      0.00000000
  C     11    6      1.20107039     -1.10433419     -0.00000000
  H     12    1      2.11220096     -1.67699125     -0.00000000
[GTO]
1    0
S    1    1.000000
   4.56324000E+03    1.96665000E-03 
S    1    1.000000
   6.82024000E+02    1.52306000E-02 
S    1    1.000000
   1.54973000E+02    7.61269000E-02 
S    1    1.000000
   4.44553000E+01    2.60801000E-01 
S    1    1.000000
   1.30290000E+01    6.16462000E-01 
S    1    1.000000
   1.82773000E+00    2.21006000E-01 
SP   3    1.000000
   2.09642000E+01    1.14660000E-01   4.02487000E-02 
   4.80331000E+00    9.19999000E-01   2.37594000E-01 
   1.45933000E+00   -3.03068000E-03   8.15854000E-01 
SP   1    1.000000
   4.83456000E-01    1.00000000E+00   1.00000000E+00 
SP   1    1.000000
   1.45585000E-01    1.00000000E+00   1.00000000E+00 
SP   1    1.000000
   4.38000000E-02    1.00000000E+00   1.00000000E+00 
SP   1    1.000000
   1.31927711E-02    1.00000000E+00   1.00000000E+00 
D    1    1.000000
   6.26000000E-01    1.00000000E+00 

2    0
S    3    1.000000
   3.38650000E+01    2.54938000E-02 
   5.09479000E+00    1.90373000E-01 
   1.15879000E+00    8.52161000E-01 
S    1    1.000000
   3.25840000E-01    1.00000000E+00 
S    1    1.000000
   1.02741000E-01    1.00000000E+00 
S    1    1.000000
   3.60000000E-02    1.00000000E+00 
P    1    1.000000
   7.50000000E-01    1.00000000E+00 

3    0
S    3    1.000000
   3.38650000E+01    2.54938000E-02 
   5.09479000E+00    1.90373000E-01 
   1.15879000E+00    8.52161000E-01 
S    1    1.000000
   3.25840000E-01    1.00000000E+00 
S    1    1.000000
   1.02741000E-01    1.00000000E+00 
S    1    1.000000
   3.60000000E-02    1.00000000E+00 
P    1    1.000000
   7.50000000E-01    1.00000000E+00 

4    0
S    3    1.000000
   3.38650000E+01    2.54938000E-02 
   5.09479000E+00    1.90373000E-01 
   1.15879000E+00    8.52161000E-01 
S    1    1.000000
   3.25840000E-01    1.00000000E+00 
S    1    1.000000
   1.02741000E-01    1.00000000E+00 
S    1    1.000000
   3.60000000E-02    1.00000000E+00 
P    1    1.000000
   7.50000000E-01    1.00000000E+00 

5    0
S    1    1.000000
   4.56324000E+03    1.96665000E-03 
S    1    1.000000
   6.82024000E+02    1.52306000E-02 
S    1    1.000000
   1.54973000E+02    7.61269000E-02 
S    1    1.000000
   4.44553000E+01    2.60801000E-01 
S    1    1.000000
   1.30290000E+01    6.16462000E-01 
S    1    1.000000
   1.82773000E+00    2.21006000E-01 
SP   3    1.000000
   2.09642000E+01    1.14660000E-01   4.02487000E-02 
   4.80331000E+00    9.19999000E-01   2.37594000E-01 
   1.45933000E+00   -3.03068000E-03   8.15854000E-01 
SP   1    1.000000
   4.83456000E-01    1.00000000E+00   1.00000000E+00 
SP   1    1.000000
   1.45585000E-01    1.00000000E+00   1.00000000E+00 
SP   1    1.000000
   4.38000000E-02    1.00000000E+00   1.00000000E+00 
SP   1    1.000000
   1.31927711E-02    1.00000000E+00   1.00000000E+00 
D    1    1.000000
   6.26000000E-01    1.00000000E+00 

6    0
S    1    1.000000
   8.58850000E+03    1.89515000E-03 
S    1    1.000000
   1.29723000E+03    1.43859000E-02 
S    1    1.000000
   2.99296000E+02    7.07320000E-02 
S    1    1.000000
   8.73771000E+01    2.40001000E-01 
S    1    1.000000
   2.56789000E+01    5.94797000E-01 
S    1    1.000000
   3.74004000E+00    2.80802000E-01 
SP   3    1.000000
   4.21175000E+01    1.13889000E-01   3.65114000E-02 
   9.62837000E+00    9.20811000E-01   2.37153000E-01 
   2.85332000E+00   -3.27447000E-03   8.19702000E-01 
SP   1    1.000000
   9.05661000E-01    1.00000000E+00   1.00000000E+00 
SP   1    1.000000
   2.55611000E-01    1.00000000E+00   1.00000000E+00 
SP   1    1.000000
   8.45000000E-02    1.00000000E+00   1.00000000E+00 
SP   1    1.000000
   2.54518072E-02    1.00000000E+00   1.00000000E+00 
D    1    1.000000
   1.29200000E+00    1.00000000E+00 

7    0
S    1    1.000000
   4.56324000E+03    1.96665000E-03 
S    1    1.000000
   6.82024000E+02    1.52306000E-02 
S    1    1.000000
   1.54973000E+02    7.61269000E-02 
S    1    1.000000
   4.44553000E+01    2.60801000E-01 
S    1    1.000000
   1.30290000E+01    6.16462000E-01 
S    1    1.000000
   1.82773000E+00    2.21006000E-01 
SP   3    1.000000
   2.09642000E+01    1.14660000E-01   4.02487000E-02 
   4.80331000E+00    9.19999000E-01   2.37594000E-01 
   1.45933000E+00   -3.03068000E-03   8.15854000E-01 
SP   1    1.000000
   4.83456000E-01    1.00000000E+00   1.00000000E+00 
SP   1    1.000000
   1.45585000E-01    1.00000000E+00   1.00000000E+00 
SP   1    1.000000
   4.38000000E-02    1.00000000E+00   1.00000000E+00 
SP   1    1.000000
   1.31927711E-02    1.00000000E+00   1.00000000E+00 
D    1    1.000000
   6.26000000E-01    1.00000000E+00 

8    0
S    1    1.000000
   8.58850000E+03    1.89515000E-03 
S    1    1.000000
   1.29723000E+03    1.43859000E-02 
S    1    1.000000
   2.99296000E+02    7.07320000E-02 
S    1    1.000000
   8.73771000E+01    2.40001000E-01 
S    1    1.000000
   2.56789000E+01    5.94797000E-01 
S    1    1.000000
   3.74004000E+00    2.80802000E-01 
SP   3    1.000000
   4.21175000E+01    1.13889000E-01   3.65114000E-02 
   9.62837000E+00    9.20811000E-01   2.37153000E-01 
   2.85332000E+00   -3.27447000E-03   8.19702000E-01 
SP   1    1.000000
   9.05661000E-01    1.00000000E+00   1.00000000E+00 
SP   1    1.000000
   2.55611000E-01    1.00000000E+00   1.00000000E+00 
SP   1    1.000000
   8.45000000E-02    1.00000000E+00   1.00000000E+00 
SP   1    1.000000
   2.54518072E-02    1.00000000E+00   1.00000000E+00 
D    1    1.000000
   1.29200000E+00    1.00000000E+00 

9    0
S    1    1.000000
   6.29348000E+03    1.96979000E-03 
S    1    1.000000
   9.49044000E+02    1.49613000E-02 
S    1    1.000000
   2.18776000E+02    7.35006000E-02 
S    1    1.000000
   6.36916000E+01    2.48937000E-01 
S    1    1.000000
   1.88282000E+01    6.02460000E-01 
S    1    1.000000
   2.72023000E+00    2.56202000E-01 
SP   3    1.000000
   3.06331000E+01    1.11906000E-01   3.83119000E-02 
   7.02614000E+00    9.21666000E-01   2.37403000E-01 
   2.11205000E+00   -2.56919000E-03   8.17592000E-01 
SP   1    1.000000
   6.84009000E-01    1.00000000E+00   1.00000000E+00 
SP   1    1.000000
   2.00878000E-01    1.00000000E+00   1.00000000E+00 
SP   1    1.000000
   6.39000000E-02    1.00000000E+00   1.00000000E+00 
SP   1    1.000000
   1.92469880E-02    1.00000000E+00   1.00000000E+00 
D    1    1.000000
   9.13000000E-01    1.00000000E+00 

10    0
S    1    1.000000
   6.29348000E+03    1.96979000E-03 
S    1    1.000000
   9.49044000E+02    1.49613000E-02 
S    1    1.000000
   2.18776000E+02    7.35006000E-02 
S    1    1.000000
   6.36916000E+01    2.48937000E-01 
S    1    1.000000
   1.88282000E+01    6.02460000E-01 
S    1    1.000000
   2.72023000E+00    2.56202000E-01 
SP   3    1.000000
   3.06331000E+01    1.11906000E-01   3.83119000E-02 
   7.02614000E+00    9.21666000E-01   2.37403000E-01 
   2.11205000E+00   -2.56919000E-03   8.17592000E-01 
SP   1    1.000000
   6.84009000E-01    1.00000000E+00   1.00000000E+00 
SP   1    1.000000
   2.00878000E-01    1.00000000E+00   1.00000000E+00 
SP   1    1.000000
   6.39000000E-02    1.00000000E+00   1.00000000E+00 
SP   1    1.000000
   1.92469880E-02    1.00000000E+00   1.00000000E+00 
D    1    1.000000
   9.13000000E-01    1.00000000E+00 

11    0
S    1    1.000000
   4.56324000E+03    1.96665000E-03 
S    1    1.000000
   6.82024000E+02    1.52306000E-02 
S    1    1.000000
   1.54973000E+02    7.61269000E-02 
S    1    1.000000
   4.44553000E+01    2.60801000E-01 
S    1    1.000000
   1.30290000E+01    6.16462000E-01 
S    1    1.000000
   1.82773000E+00    2.21006000E-01 
SP   3    1.000000
   2.09642000E+01    1.14660000E-01   4.02487000E-02 
   4.80331000E+00    9.19999000E-01   2.37594000E-01 
   1.45933000E+00   -3.03068000E-03   8.15854000E-01 
SP   1    1.000000
   4.83456000E-01    1.00000000E+00   1.00000000E+00 
SP   1    1.000000
   1.45585000E-01    1.00000000E+00   1.00000000E+00 
SP   1    1.000000
   4.38000000E-02    1.00000000E+00   1.00000000E+00 
SP   1    1.000000
   1.31927711E-02    1.00000000E+00   1.00000000E+00 
D    1    1.000000
   6.26000000E-01    1.00000000E+00 

12    0
S    3    1.000000
   3.38650000E+01    2.54938000E-02 
   5.09479000E+00    1.90373000E-01 
   1.15879000E+00    8.52161000E-01 
S    1    1.000000
   3.25840000E-01    1.00000000E+00 
S    1    1.000000
   1.02741000E-01    1.00000000E+00 
S    1    1.000000
   3.60000000E-02    1.00000000E+00 
P    1    1.000000
   7.50000000E-01    1.00000000E+00 

[MO]
Sym=X
Ene=0.025741
Spin=Alpha
Occup=1
1    -0.000389684249
2    -0.00194417568
3    -0.00667395528
4    -0.0157762219
5    -0.00579961581
6    -0.0210884999
7    3.36390368e-05
8    -2.87771083e-05
9    7.55278262e-16
10    4.12686749e-05
11    6.97010702e-05
12    0.000104935488
13    -2.29926127e-15
14    -0.000148366539
15    -7.97291041e-05
16    6.61227041e-05
17    4.92059043e-15
18    -0.00179369312
19    1.04979495e-05
20    -0.000647713144
21    -3.35229154e-14
22    2.99070904e-05
23    9.26451102e-05
24    -0.000211860592
25    -5.20968412e-14
26    5.79017144e-05
27    8.69643199e-16
28    1.10824348e-05
29    -1.1828633e-15
30    8.85038537e-06
31    9.18382291e-06
32    -4.0974417e-05
33    0.000211827037
34    0.000328829073
35    -7.31734112e-07
36    -5.2583161e-06
37    1.07916802e-15
38    -1.75310899e-05
39    6.84591813e-05
40    -4.96248816e-05
41    -2.73670911e-05
42    1.46915838e-05
43    5.49825789e-06
44    1.84980291e-16
45    3.38376917e-05
46    5.42556076e-05
47    0.000120590297
48    -0.000244385559
49    -1.24714076e-05
50    -4.16285673e-05
51    6.79599115e-16
52    1.15762877e-06
53    8.98949943e-06
54    4.46479186e-05
55    0.000154044097
56    0.000356214729
57    9.57653795e-05
58    0.000506182554
59    -1.67076006e-05
60    -3.00997167e-06
61    2.04680991e-15
62    7.0780571e-05
63    5.01442697e-05
64    6.43726034e-06
65    6.47806595e-15
66    -5.12994567e-05
67    -0.000447890793
68    0.000209318031
69    3.06364754e-15
70    0.000544065261
71    -0.000117034392
72    -0.000286377305
73    -2.48381262e-14
74    -0.000501012933
75    -0.000193811924
76    -5.80587097e-05
77    -1.32245825e-14
78    5.89144231e-06
79    2.57157939e-16
80    1.63515867e-06
81    2.46893824e-17
82    4.54718672e-05
83    -5.57389166e-09
84    -3.04608081e-08
85    -2.36292102e-07
86    -4.79497744e-07
87    -4.296739e-06
88    -1.23806716e-05
89    4.27376568e-06
90    -6.78665141e-07
91    6.80178243e-07
92    1.35936602e-15
93    3.41802394e-05
94    1.92107729e-05
95    -7.23270638e-07
96    2.73377304e-15
97    -0.000163249283
98    -7.57254836e-05
99    6.05391119e-05
100    1.98086672e-15
101    -0.000719067668
102    -0.000228202617
103    5.52608116e-05
104    9.68837634e-15
105    -0.000154405109
106    6.20119523e-05
107    0.000206725472
108    -1.00407894e-14
109    4.84932712e-06
110    3.22536817e-16
111    1.22325909e-06
112    4.94931823e-16
113    5.49434427e-06
114    0.00110838452
115    0.00858054441
116    0.0428047222
117    0.146956246
118    0.347186944
119    0.126315907
120    0.464988321
121    -0.000739500314
122    0.000489990797
123    -4.56425268e-16
124    0.0016220956
125    0.000805919268
126    -0.00023832811
127    7.44668587e-17
128    0.0015144469
129    -0.000278932475
130    0.000421021227
131    -1.57794223e-15
132    -0.00234099651
133    0.000141214081
134    0.00240310591
135    -4.07052561e-14
136    -0.000260809761
137    -0.000306608959
138    4.86384324e-05
139    -3.21825778e-15
140    0.000333263049
141    2.52180556e-16
142    -0.000254166926
143    -1.23498697e-15
144    -4.78918243e-05
145    1.09737381e-07
146    9.3873852e-07
147    3.66639692e-06
148    1.54825237e-05
149    1.34097208e-05
150    -0.000122622308
151    2.70629252e-05
152    -0.000205706762
153    -0.000137583385
154    -2.23247491e-16
155    0.000644441907
156    -0.000557501391
157    -0.000370466881
158    -1.82293541e-15
159    -0.000270549961
160    0.000228968636
161    0.000115062677
162    -3.25335017e-15
163    -0.00036186217
164    -6.99576589e-05
165    -0.000187681423
166    6.68396586e-15
167    -0.00221243887
168    0.000591500192
169    6.70607765e-05
170    -1.21657123e-14
171    0.000256166327
172    1.48810943e-16
173    -0.000114480109
174    1.04764521e-16
175    0.000114171232
176    -6.77985381e-07
177    -4.97966977e-06
178    -2.58194839e-05
179    -8.26547995e-05
180    -0.000248015071
181    -0.000313050572
182    -0.00021742612
183    4.47541485e-05
184    -3.8996324e-05
185    4.9049512e-16
186    0.000565648689
187    0.000693540197
188    -0.000327739111
189    5.87962944e-15
190    5.08172713e-05
191    -0.000159547595
192    -0.00015828989
193    -4.82814287e-15
194    -0.00125468124
195    -0.00102191151
196    7.46582293e-06
197    2.93782771e-14
198    0.00039967058
199    0.000663516471
200    9.71056358e-05
201    1.45770468e-14
202    -0.000268311613
203    -1.58992539e-16
204    -0.000123632383
205    -5.87576627e-16
206    0.000215803024
207    7.39316679e-08
208    5.93852152e-07
209    2.69298468e-06
210    1.0003396e-05
211    1.65349874e-05
212    -1.59558815e-05
213    5.15876088e-05
214    -1.01548073e-05
215    3.14686252e-07
216    4.80371939e-16
217    4.02403209e-05
218    -5.29393795e-06
219    2.98241045e-05
220    4.01685152e-15
221    -6.13106801e-06
222    -2.49855834e-05
223    3.25326634e-05
224    -1.36971427e-15
225    0.000177044608
226    0.000477680398
227    6.14007611e-05
228    1.62067508e-14
229    0.000762246302
230    -7.66679407e-06
231    0.000349637656
232    4.54657148e-14
233    5.4730058e-06
234    9.04604039e-16
235    1.89223634e-06
236    -1.91287806e-16
237    -1.20479489e-05
238    3.66752121e-06
239    2.835823e-05
240    0.000141627384
241    0.000485076007
242    0.00115050116
243    0.000379955927
244    0.00149831574
245    5.01341688e-06
246    9.29974548e-05
247    -7.13462317e-16
248    0.000289377571
249    8.48230602e-05
250    0.000493359641
251    -1.10028685e-15
252    -0.000159166425
253    2.16893671e-05
254    -0.000259400263
255    -4.02120314e-15
256    0.00596520392
257    -0.000262550309
258    0.00145873479
259    3.05287575e-14
260    0.000632764022
261    0.000106654452
262    0.000370661524
263    2.65151294e-14
264    2.79244211e-05
265    2.10391318e-16
266    -2.45450757e-05
267    -3.02130098e-16
268    -0.000289844396
269    2.4394048e-05
270    9.06798502e-05
271    -0.000162706603
272    0.000280014768
273    -3.30083585e-05
274    7.29316058e-05
275    -7.51942642e-16
[5D]