[Molden Format]
[Atoms] (Angs)
  C      1    6     -0.00714236     -1.70213747     -0.00000000
  H      2    1     -2.06882847     -1.44022412      0.00000000
  H      3    1     -0.12337987     -2.77567521      0.00000000
  H      4    1      0.04651892      1.98813947     -0.00000000
  C      5    6     -1.21953563      0.40211669      0.00000000
  O      6    8     -2.25921553      1.03043814      0.00000000
  C      7    6      1.28797806      0.34644937     -0.00000000
  O      8    8      2.31273661      1.00537216     -0.00000000
  N      9    7      0.03446295      0.97739857     -0.00000000
  N     10    7     -1.17287765     -0.98229824      0.00000000
  C     11    6      1.20107039     -1.10433419     -0.00000000
  H     12    1      2.11220096     -1.67699125     -0.00000000
[GTO]
1    0
S    1    1.000000
   4.56324000E+03    1.96665000E-03 
S    1    1.000000
   6.82024000E+02    1.52306000E-02 
S    1    1.000000
   1.54973000E+02    7.61269000E-02 
S    1    1.000000
   4.44553000E+01    2.60801000E-01 
S    1    1.000000
   1.30290000E+01    6.16462000E-01 
S    1    1.000000
   1.82773000E+00    2.21006000E-01 
SP   3    1.000000
   2.09642000E+01    1.14660000E-01   4.02487000E-02 
   4.80331000E+00    9.19999000E-01   2.37594000E-01 
   1.45933000E+00   -3.03068000E-03   8.15854000E-01 
SP   1    1.000000
   4.83456000E-01    1.00000000E+00   1.00000000E+00 
SP   1    1.000000
   1.45585000E-01    1.00000000E+00   1.00000000E+00 
SP   1    1.000000
   4.38000000E-02    1.00000000E+00   1.00000000E+00 
SP   1    1.000000
   1.31927711E-02    1.00000000E+00   1.00000000E+00 
D    1    1.000000
   6.26000000E-01    1.00000000E+00 

2    0
S    3    1.000000
   3.38650000E+01    2.54938000E-02 
   5.09479000E+00    1.90373000E-01 
   1.15879000E+00    8.52161000E-01 
S    1    1.000000
   3.25840000E-01    1.00000000E+00 
S    1    1.000000
   1.02741000E-01    1.00000000E+00 
S    1    1.000000
   3.60000000E-02    1.00000000E+00 
P    1    1.000000
   7.50000000E-01    1.00000000E+00 

3    0
S    3    1.000000
   3.38650000E+01    2.54938000E-02 
   5.09479000E+00    1.90373000E-01 
   1.15879000E+00    8.52161000E-01 
S    1    1.000000
   3.25840000E-01    1.00000000E+00 
S    1    1.000000
   1.02741000E-01    1.00000000E+00 
S    1    1.000000
   3.60000000E-02    1.00000000E+00 
P    1    1.000000
   7.50000000E-01    1.00000000E+00 

4    0
S    3    1.000000
   3.38650000E+01    2.54938000E-02 
   5.09479000E+00    1.90373000E-01 
   1.15879000E+00    8.52161000E-01 
S    1    1.000000
   3.25840000E-01    1.00000000E+00 
S    1    1.000000
   1.02741000E-01    1.00000000E+00 
S    1    1.000000
   3.60000000E-02    1.00000000E+00 
P    1    1.000000
   7.50000000E-01    1.00000000E+00 

5    0
S    1    1.000000
   4.56324000E+03    1.96665000E-03 
S    1    1.000000
   6.82024000E+02    1.52306000E-02 
S    1    1.000000
   1.54973000E+02    7.61269000E-02 
S    1    1.000000
   4.44553000E+01    2.60801000E-01 
S    1    1.000000
   1.30290000E+01    6.16462000E-01 
S    1    1.000000
   1.82773000E+00    2.21006000E-01 
SP   3    1.000000
   2.09642000E+01    1.14660000E-01   4.02487000E-02 
   4.80331000E+00    9.19999000E-01   2.37594000E-01 
   1.45933000E+00   -3.03068000E-03   8.15854000E-01 
SP   1    1.000000
   4.83456000E-01    1.00000000E+00   1.00000000E+00 
SP   1    1.000000
   1.45585000E-01    1.00000000E+00   1.00000000E+00 
SP   1    1.000000
   4.38000000E-02    1.00000000E+00   1.00000000E+00 
SP   1    1.000000
   1.31927711E-02    1.00000000E+00   1.00000000E+00 
D    1    1.000000
   6.26000000E-01    1.00000000E+00 

6    0
S    1    1.000000
   8.58850000E+03    1.89515000E-03 
S    1    1.000000
   1.29723000E+03    1.43859000E-02 
S    1    1.000000
   2.99296000E+02    7.07320000E-02 
S    1    1.000000
   8.73771000E+01    2.40001000E-01 
S    1    1.000000
   2.56789000E+01    5.94797000E-01 
S    1    1.000000
   3.74004000E+00    2.80802000E-01 
SP   3    1.000000
   4.21175000E+01    1.13889000E-01   3.65114000E-02 
   9.62837000E+00    9.20811000E-01   2.37153000E-01 
   2.85332000E+00   -3.27447000E-03   8.19702000E-01 
SP   1    1.000000
   9.05661000E-01    1.00000000E+00   1.00000000E+00 
SP   1    1.000000
   2.55611000E-01    1.00000000E+00   1.00000000E+00 
SP   1    1.000000
   8.45000000E-02    1.00000000E+00   1.00000000E+00 
SP   1    1.000000
   2.54518072E-02    1.00000000E+00   1.00000000E+00 
D    1    1.000000
   1.29200000E+00    1.00000000E+00 

7    0
S    1    1.000000
   4.56324000E+03    1.96665000E-03 
S    1    1.000000
   6.82024000E+02    1.52306000E-02 
S    1    1.000000
   1.54973000E+02    7.61269000E-02 
S    1    1.000000
   4.44553000E+01    2.60801000E-01 
S    1    1.000000
   1.30290000E+01    6.16462000E-01 
S    1    1.000000
   1.82773000E+00    2.21006000E-01 
SP   3    1.000000
   2.09642000E+01    1.14660000E-01   4.02487000E-02 
   4.80331000E+00    9.19999000E-01   2.37594000E-01 
   1.45933000E+00   -3.03068000E-03   8.15854000E-01 
SP   1    1.000000
   4.83456000E-01    1.00000000E+00   1.00000000E+00 
SP   1    1.000000
   1.45585000E-01    1.00000000E+00   1.00000000E+00 
SP   1    1.000000
   4.38000000E-02    1.00000000E+00   1.00000000E+00 
SP   1    1.000000
   1.31927711E-02    1.00000000E+00   1.00000000E+00 
D    1    1.000000
   6.26000000E-01    1.00000000E+00 

8    0
S    1    1.000000
   8.58850000E+03    1.89515000E-03 
S    1    1.000000
   1.29723000E+03    1.43859000E-02 
S    1    1.000000
   2.99296000E+02    7.07320000E-02 
S    1    1.000000
   8.73771000E+01    2.40001000E-01 
S    1    1.000000
   2.56789000E+01    5.94797000E-01 
S    1    1.000000
   3.74004000E+00    2.80802000E-01 
SP   3    1.000000
   4.21175000E+01    1.13889000E-01   3.65114000E-02 
   9.62837000E+00    9.20811000E-01   2.37153000E-01 
   2.85332000E+00   -3.27447000E-03   8.19702000E-01 
SP   1    1.000000
   9.05661000E-01    1.00000000E+00   1.00000000E+00 
SP   1    1.000000
   2.55611000E-01    1.00000000E+00   1.00000000E+00 
SP   1    1.000000
   8.45000000E-02    1.00000000E+00   1.00000000E+00 
SP   1    1.000000
   2.54518072E-02    1.00000000E+00   1.00000000E+00 
D    1    1.000000
   1.29200000E+00    1.00000000E+00 

9    0
S    1    1.000000
   6.29348000E+03    1.96979000E-03 
S    1    1.000000
   9.49044000E+02    1.49613000E-02 
S    1    1.000000
   2.18776000E+02    7.35006000E-02 
S    1    1.000000
   6.36916000E+01    2.48937000E-01 
S    1    1.000000
   1.88282000E+01    6.02460000E-01 
S    1    1.000000
   2.72023000E+00    2.56202000E-01 
SP   3    1.000000
   3.06331000E+01    1.11906000E-01   3.83119000E-02 
   7.02614000E+00    9.21666000E-01   2.37403000E-01 
   2.11205000E+00   -2.56919000E-03   8.17592000E-01 
SP   1    1.000000
   6.84009000E-01    1.00000000E+00   1.00000000E+00 
SP   1    1.000000
   2.00878000E-01    1.00000000E+00   1.00000000E+00 
SP   1    1.000000
   6.39000000E-02    1.00000000E+00   1.00000000E+00 
SP   1    1.000000
   1.92469880E-02    1.00000000E+00   1.00000000E+00 
D    1    1.000000
   9.13000000E-01    1.00000000E+00 

10    0
S    1    1.000000
   6.29348000E+03    1.96979000E-03 
S    1    1.000000
   9.49044000E+02    1.49613000E-02 
S    1    1.000000
   2.18776000E+02    7.35006000E-02 
S    1    1.000000
   6.36916000E+01    2.48937000E-01 
S    1    1.000000
   1.88282000E+01    6.02460000E-01 
S    1    1.000000
   2.72023000E+00    2.56202000E-01 
SP   3    1.000000
   3.06331000E+01    1.11906000E-01   3.83119000E-02 
   7.02614000E+00    9.21666000E-01   2.37403000E-01 
   2.11205000E+00   -2.56919000E-03   8.17592000E-01 
SP   1    1.000000
   6.84009000E-01    1.00000000E+00   1.00000000E+00 
SP   1    1.000000
   2.00878000E-01    1.00000000E+00   1.00000000E+00 
SP   1    1.000000
   6.39000000E-02    1.00000000E+00   1.00000000E+00 
SP   1    1.000000
   1.92469880E-02    1.00000000E+00   1.00000000E+00 
D    1    1.000000
   9.13000000E-01    1.00000000E+00 

11    0
S    1    1.000000
   4.56324000E+03    1.96665000E-03 
S    1    1.000000
   6.82024000E+02    1.52306000E-02 
S    1    1.000000
   1.54973000E+02    7.61269000E-02 
S    1    1.000000
   4.44553000E+01    2.60801000E-01 
S    1    1.000000
   1.30290000E+01    6.16462000E-01 
S    1    1.000000
   1.82773000E+00    2.21006000E-01 
SP   3    1.000000
   2.09642000E+01    1.14660000E-01   4.02487000E-02 
   4.80331000E+00    9.19999000E-01   2.37594000E-01 
   1.45933000E+00   -3.03068000E-03   8.15854000E-01 
SP   1    1.000000
   4.83456000E-01    1.00000000E+00   1.00000000E+00 
SP   1    1.000000
   1.45585000E-01    1.00000000E+00   1.00000000E+00 
SP   1    1.000000
   4.38000000E-02    1.00000000E+00   1.00000000E+00 
SP   1    1.000000
   1.31927711E-02    1.00000000E+00   1.00000000E+00 
D    1    1.000000
   6.26000000E-01    1.00000000E+00 

12    0
S    3    1.000000
   3.38650000E+01    2.54938000E-02 
   5.09479000E+00    1.90373000E-01 
   1.15879000E+00    8.52161000E-01 
S    1    1.000000
   3.25840000E-01    1.00000000E+00 
S    1    1.000000
   1.02741000E-01    1.00000000E+00 
S    1    1.000000
   3.60000000E-02    1.00000000E+00 
P    1    1.000000
   7.50000000E-01    1.00000000E+00 

[MO]
Sym=X
Ene=1.9e-05
Spin=Alpha
Occup=1
1    -0.00447752868
2    -0.0223361817
3    -0.0766852118
4    -0.18117014
5    -0.0660596772
6    -0.242517654
7    0.00048373586
8    -0.000218583402
9    5.91951072e-16
10    -0.00113785355
11    -0.000826678744
12    -0.000105257641
13    -1.85476774e-15
14    -0.000130286436
15    0.00027059529
16    2.2394313e-05
17    7.64539347e-15
18    -0.000407303376
19    0.000352007435
20    -1.50991059e-05
21    -1.01116221e-13
22    0.000174572645
23    5.73118726e-05
24    4.55181504e-05
25    3.91358715e-14
26    -0.000324946958
27    6.29590076e-16
28    0.000135696736
29    7.32938825e-16
30    -0.000172463402
31    -2.15927033e-05
32    -8.63820616e-05
33    3.25943752e-05
34    1.63825125e-05
35    -4.1028021e-05
36    -1.19659059e-05
37    -1.21369489e-15
38    -0.000218963782
39    -0.000236612447
40    0.000116243102
41    0.00018479185
42    -4.79189552e-05
43    -0.000195458588
44    2.43220476e-16
45    -5.44036022e-06
46    2.28793591e-05
47    -5.3478728e-05
48    -0.000414625776
49    -1.21167385e-05
50    -1.13661077e-05
51    3.808843e-16
52    -0.00020592138
53    -0.00159415169
54    -0.00795247197
55    -0.0273028373
56    -0.0644996512
57    -0.0234393197
58    -0.0863985638
59    -0.000124691257
60    6.86812122e-05
61    -3.49137129e-15
62    -0.000370643666
63    0.000143422822
64    -3.46364426e-05
65    4.09448526e-17
66    -2.35495721e-05
67    0.000307064817
68    -0.000210093258
69    -9.6665201e-15
70    -1.02008218e-06
71    0.000366021136
72    -0.00048334121
73    -1.12959731e-13
74    -0.000426954357
75    -0.000143833564
76    -9.10621365e-05
77    -8.03638819e-14
78    5.96139621e-05
79    3.64769519e-16
80    3.82636554e-05
81    1.49078632e-15
82    1.57269173e-05
83    4.79373722e-07
84    3.61699459e-06
85    1.79837806e-05
86    6.03636581e-05
87    0.000156684935
88    0.000106382583
89    0.000214538603
90    -3.51309975e-05
91    2.24130319e-05
92    -1.68762356e-15
93    -0.000138874156
94    -0.000111718624
95    7.60142491e-05
96    -2.99674866e-15
97    0.000170580625
98    0.000111296824
99    -5.22428122e-05
100    -7.61558947e-15
101    0.000441307803
102    -1.4455168e-05
103    -6.44966095e-05
104    8.16038136e-15
105    0.000841780481
106    0.000165201923
107    2.71618843e-08
108    2.02359069e-14
109    4.88215947e-05
110    9.06567782e-16
111    2.13049661e-05
112    -6.78023323e-16
113    -1.88788974e-05
114    0.000609814268
115    0.00472082258
116    0.023550597
117    0.0808522545
118    0.191030606
119    0.0696131068
120    0.255812899
121    -0.000408617572
122    0.000306634222
123    3.33610912e-15
124    0.000485321959
125    0.000496463582
126    0.000325560051
127    3.8723459e-15
128    0.00109579192
129    -0.000457226347
130    -0.000308187687
131    1.30877126e-14
132    -0.000638935774
133    -0.000484305936
134    0.000683390847
135    -1.23891449e-13
136    -8.06599896e-05
137    -0.000199545622
138    8.7216674e-05
139    4.15563136e-14
140    0.000133058301
141    3.57598197e-16
142    -9.20140703e-05
143    4.72992873e-16
144    0.000212685013
145    4.02033226e-06
146    3.06153361e-05
147    0.000149778832
148    0.000510725824
149    0.00125702913
150    0.000547161081
151    0.00178627648
152    -0.000124722803
153    -9.53928132e-05
154    1.68697655e-15
155    0.000323705681
156    -0.000266982224
157    -0.000164172791
158    5.60925563e-15
159    -5.78953242e-05
160    3.27649561e-05
161    5.106627e-05
162    -1.61377352e-15
163    0.000515219535
164    -0.000151184321
165    -0.000147310697
166    2.7838172e-14
167    -3.15942822e-05
168    7.8809035e-05
169    -2.72388188e-05
170    -1.32636178e-15
171    0.000121014782
172    -4.34275638e-16
173    -6.16864743e-05
174    -4.04128458e-16
175    8.02882295e-05
176    -1.8155475e-05
177    -0.000138208091
178    -0.000677426026
179    -0.00229866928
180    -0.00556530754
181    -0.00242777223
182    -0.00773355081
183    5.58550947e-05
184    -2.38114047e-05
185    -2.35167963e-15
186    7.18512321e-05
187    0.000443454519
188    -8.68196641e-05
189    8.85649617e-15
190    -0.000147826173
191    2.51385973e-05
192    4.36890985e-05
193    -2.4371068e-14
194    -0.00110767922
195    -0.000575624813
196    0.00042628164
197    9.18664196e-14
198    -0.000652614515
199    0.000150411752
200    0.000240631383
201    6.9013463e-14
202    -0.000171136697
203    -8.36217135e-17
204    -4.6087789e-05
205    1.0915696e-15
206    6.65579346e-05
207    -6.80486151e-06
208    -5.193859e-05
209    -0.000253495452
210    -0.00086387544
211    -0.00205468634
212    -0.000725601453
213    -0.00294791773
214    -2.47983513e-05
215    2.25142808e-07
216    -4.55424364e-15
217    -0.000479608381
218    -0.000420273189
219    0.000131442082
220    4.51198758e-15
221    -0.000127768721
222    -0.000112474292
223    -0.000108260858
224    -2.4542053e-14
225    0.000211651466
226    0.000206345441
227    -0.00027296255
228    7.41265741e-14
229    0.000333916686
230    0.000157315695
231    -3.87265095e-05
232    5.30256333e-14
233    0.000187753428
234    9.1043715e-17
235    9.16516764e-05
236    7.32339554e-17
237    -6.36072405e-05
238    -0.000693762505
239    -0.00537087733
240    -0.0267918828
241    -0.0919881836
242    -0.217310119
243    -0.0795281748
244    -0.290828284
245    0.000189973331
246    -5.71941109e-05
247    6.29393965e-16
248    -0.00108524658
249    0.000204751195
250    0.000412490213
251    6.18384636e-15
252    -0.000873111008
253    0.00023282378
254    -0.000399357763
255    -9.43521479e-15
256    0.000783173378
257    0.000343926316
258    0.000585007748
259    1.24052065e-13
260    0.000298715185
261    7.16487283e-05
262    0.000129579166
263    -5.92955273e-14
264    -0.000112680466
265    4.70569618e-16
266    2.07524e-05
267    5.21312364e-16
268    -0.000286667987
269    -0.000237812907
270    -0.000253115147
271    -8.88617585e-05
272    1.68594058e-05
273    0.000194108419
274    -5.01235013e-05
275    1.1307796e-15
[5D]