[Molden Format]
[Atoms] (Angs)
  C      1    6     -0.00714236     -1.70213747     -0.00000000
  H      2    1     -2.06882847     -1.44022412      0.00000000
  H      3    1     -0.12337987     -2.77567521      0.00000000
  H      4    1      0.04651892      1.98813947     -0.00000000
  C      5    6     -1.21953563      0.40211669      0.00000000
  O      6    8     -2.25921553      1.03043814      0.00000000
  C      7    6      1.28797806      0.34644937     -0.00000000
  O      8    8      2.31273661      1.00537216     -0.00000000
  N      9    7      0.03446295      0.97739857     -0.00000000
  N     10    7     -1.17287765     -0.98229824      0.00000000
  C     11    6      1.20107039     -1.10433419     -0.00000000
  H     12    1      2.11220096     -1.67699125     -0.00000000
[GTO]
1    0
S    1    1.000000
   4.56324000E+03    1.96665000E-03 
S    1    1.000000
   6.82024000E+02    1.52306000E-02 
S    1    1.000000
   1.54973000E+02    7.61269000E-02 
S    1    1.000000
   4.44553000E+01    2.60801000E-01 
S    1    1.000000
   1.30290000E+01    6.16462000E-01 
S    1    1.000000
   1.82773000E+00    2.21006000E-01 
SP   3    1.000000
   2.09642000E+01    1.14660000E-01   4.02487000E-02 
   4.80331000E+00    9.19999000E-01   2.37594000E-01 
   1.45933000E+00   -3.03068000E-03   8.15854000E-01 
SP   1    1.000000
   4.83456000E-01    1.00000000E+00   1.00000000E+00 
SP   1    1.000000
   1.45585000E-01    1.00000000E+00   1.00000000E+00 
SP   1    1.000000
   4.38000000E-02    1.00000000E+00   1.00000000E+00 
SP   1    1.000000
   1.31927711E-02    1.00000000E+00   1.00000000E+00 
D    1    1.000000
   6.26000000E-01    1.00000000E+00 

2    0
S    3    1.000000
   3.38650000E+01    2.54938000E-02 
   5.09479000E+00    1.90373000E-01 
   1.15879000E+00    8.52161000E-01 
S    1    1.000000
   3.25840000E-01    1.00000000E+00 
S    1    1.000000
   1.02741000E-01    1.00000000E+00 
S    1    1.000000
   3.60000000E-02    1.00000000E+00 
P    1    1.000000
   7.50000000E-01    1.00000000E+00 

3    0
S    3    1.000000
   3.38650000E+01    2.54938000E-02 
   5.09479000E+00    1.90373000E-01 
   1.15879000E+00    8.52161000E-01 
S    1    1.000000
   3.25840000E-01    1.00000000E+00 
S    1    1.000000
   1.02741000E-01    1.00000000E+00 
S    1    1.000000
   3.60000000E-02    1.00000000E+00 
P    1    1.000000
   7.50000000E-01    1.00000000E+00 

4    0
S    3    1.000000
   3.38650000E+01    2.54938000E-02 
   5.09479000E+00    1.90373000E-01 
   1.15879000E+00    8.52161000E-01 
S    1    1.000000
   3.25840000E-01    1.00000000E+00 
S    1    1.000000
   1.02741000E-01    1.00000000E+00 
S    1    1.000000
   3.60000000E-02    1.00000000E+00 
P    1    1.000000
   7.50000000E-01    1.00000000E+00 

5    0
S    1    1.000000
   4.56324000E+03    1.96665000E-03 
S    1    1.000000
   6.82024000E+02    1.52306000E-02 
S    1    1.000000
   1.54973000E+02    7.61269000E-02 
S    1    1.000000
   4.44553000E+01    2.60801000E-01 
S    1    1.000000
   1.30290000E+01    6.16462000E-01 
S    1    1.000000
   1.82773000E+00    2.21006000E-01 
SP   3    1.000000
   2.09642000E+01    1.14660000E-01   4.02487000E-02 
   4.80331000E+00    9.19999000E-01   2.37594000E-01 
   1.45933000E+00   -3.03068000E-03   8.15854000E-01 
SP   1    1.000000
   4.83456000E-01    1.00000000E+00   1.00000000E+00 
SP   1    1.000000
   1.45585000E-01    1.00000000E+00   1.00000000E+00 
SP   1    1.000000
   4.38000000E-02    1.00000000E+00   1.00000000E+00 
SP   1    1.000000
   1.31927711E-02    1.00000000E+00   1.00000000E+00 
D    1    1.000000
   6.26000000E-01    1.00000000E+00 

6    0
S    1    1.000000
   8.58850000E+03    1.89515000E-03 
S    1    1.000000
   1.29723000E+03    1.43859000E-02 
S    1    1.000000
   2.99296000E+02    7.07320000E-02 
S    1    1.000000
   8.73771000E+01    2.40001000E-01 
S    1    1.000000
   2.56789000E+01    5.94797000E-01 
S    1    1.000000
   3.74004000E+00    2.80802000E-01 
SP   3    1.000000
   4.21175000E+01    1.13889000E-01   3.65114000E-02 
   9.62837000E+00    9.20811000E-01   2.37153000E-01 
   2.85332000E+00   -3.27447000E-03   8.19702000E-01 
SP   1    1.000000
   9.05661000E-01    1.00000000E+00   1.00000000E+00 
SP   1    1.000000
   2.55611000E-01    1.00000000E+00   1.00000000E+00 
SP   1    1.000000
   8.45000000E-02    1.00000000E+00   1.00000000E+00 
SP   1    1.000000
   2.54518072E-02    1.00000000E+00   1.00000000E+00 
D    1    1.000000
   1.29200000E+00    1.00000000E+00 

7    0
S    1    1.000000
   4.56324000E+03    1.96665000E-03 
S    1    1.000000
   6.82024000E+02    1.52306000E-02 
S    1    1.000000
   1.54973000E+02    7.61269000E-02 
S    1    1.000000
   4.44553000E+01    2.60801000E-01 
S    1    1.000000
   1.30290000E+01    6.16462000E-01 
S    1    1.000000
   1.82773000E+00    2.21006000E-01 
SP   3    1.000000
   2.09642000E+01    1.14660000E-01   4.02487000E-02 
   4.80331000E+00    9.19999000E-01   2.37594000E-01 
   1.45933000E+00   -3.03068000E-03   8.15854000E-01 
SP   1    1.000000
   4.83456000E-01    1.00000000E+00   1.00000000E+00 
SP   1    1.000000
   1.45585000E-01    1.00000000E+00   1.00000000E+00 
SP   1    1.000000
   4.38000000E-02    1.00000000E+00   1.00000000E+00 
SP   1    1.000000
   1.31927711E-02    1.00000000E+00   1.00000000E+00 
D    1    1.000000
   6.26000000E-01    1.00000000E+00 

8    0
S    1    1.000000
   8.58850000E+03    1.89515000E-03 
S    1    1.000000
   1.29723000E+03    1.43859000E-02 
S    1    1.000000
   2.99296000E+02    7.07320000E-02 
S    1    1.000000
   8.73771000E+01    2.40001000E-01 
S    1    1.000000
   2.56789000E+01    5.94797000E-01 
S    1    1.000000
   3.74004000E+00    2.80802000E-01 
SP   3    1.000000
   4.21175000E+01    1.13889000E-01   3.65114000E-02 
   9.62837000E+00    9.20811000E-01   2.37153000E-01 
   2.85332000E+00   -3.27447000E-03   8.19702000E-01 
SP   1    1.000000
   9.05661000E-01    1.00000000E+00   1.00000000E+00 
SP   1    1.000000
   2.55611000E-01    1.00000000E+00   1.00000000E+00 
SP   1    1.000000
   8.45000000E-02    1.00000000E+00   1.00000000E+00 
SP   1    1.000000
   2.54518072E-02    1.00000000E+00   1.00000000E+00 
D    1    1.000000
   1.29200000E+00    1.00000000E+00 

9    0
S    1    1.000000
   6.29348000E+03    1.96979000E-03 
S    1    1.000000
   9.49044000E+02    1.49613000E-02 
S    1    1.000000
   2.18776000E+02    7.35006000E-02 
S    1    1.000000
   6.36916000E+01    2.48937000E-01 
S    1    1.000000
   1.88282000E+01    6.02460000E-01 
S    1    1.000000
   2.72023000E+00    2.56202000E-01 
SP   3    1.000000
   3.06331000E+01    1.11906000E-01   3.83119000E-02 
   7.02614000E+00    9.21666000E-01   2.37403000E-01 
   2.11205000E+00   -2.56919000E-03   8.17592000E-01 
SP   1    1.000000
   6.84009000E-01    1.00000000E+00   1.00000000E+00 
SP   1    1.000000
   2.00878000E-01    1.00000000E+00   1.00000000E+00 
SP   1    1.000000
   6.39000000E-02    1.00000000E+00   1.00000000E+00 
SP   1    1.000000
   1.92469880E-02    1.00000000E+00   1.00000000E+00 
D    1    1.000000
   9.13000000E-01    1.00000000E+00 

10    0
S    1    1.000000
   6.29348000E+03    1.96979000E-03 
S    1    1.000000
   9.49044000E+02    1.49613000E-02 
S    1    1.000000
   2.18776000E+02    7.35006000E-02 
S    1    1.000000
   6.36916000E+01    2.48937000E-01 
S    1    1.000000
   1.88282000E+01    6.02460000E-01 
S    1    1.000000
   2.72023000E+00    2.56202000E-01 
SP   3    1.000000
   3.06331000E+01    1.11906000E-01   3.83119000E-02 
   7.02614000E+00    9.21666000E-01   2.37403000E-01 
   2.11205000E+00   -2.56919000E-03   8.17592000E-01 
SP   1    1.000000
   6.84009000E-01    1.00000000E+00   1.00000000E+00 
SP   1    1.000000
   2.00878000E-01    1.00000000E+00   1.00000000E+00 
SP   1    1.000000
   6.39000000E-02    1.00000000E+00   1.00000000E+00 
SP   1    1.000000
   1.92469880E-02    1.00000000E+00   1.00000000E+00 
D    1    1.000000
   9.13000000E-01    1.00000000E+00 

11    0
S    1    1.000000
   4.56324000E+03    1.96665000E-03 
S    1    1.000000
   6.82024000E+02    1.52306000E-02 
S    1    1.000000
   1.54973000E+02    7.61269000E-02 
S    1    1.000000
   4.44553000E+01    2.60801000E-01 
S    1    1.000000
   1.30290000E+01    6.16462000E-01 
S    1    1.000000
   1.82773000E+00    2.21006000E-01 
SP   3    1.000000
   2.09642000E+01    1.14660000E-01   4.02487000E-02 
   4.80331000E+00    9.19999000E-01   2.37594000E-01 
   1.45933000E+00   -3.03068000E-03   8.15854000E-01 
SP   1    1.000000
   4.83456000E-01    1.00000000E+00   1.00000000E+00 
SP   1    1.000000
   1.45585000E-01    1.00000000E+00   1.00000000E+00 
SP   1    1.000000
   4.38000000E-02    1.00000000E+00   1.00000000E+00 
SP   1    1.000000
   1.31927711E-02    1.00000000E+00   1.00000000E+00 
D    1    1.000000
   6.26000000E-01    1.00000000E+00 

12    0
S    3    1.000000
   3.38650000E+01    2.54938000E-02 
   5.09479000E+00    1.90373000E-01 
   1.15879000E+00    8.52161000E-01 
S    1    1.000000
   3.25840000E-01    1.00000000E+00 
S    1    1.000000
   1.02741000E-01    1.00000000E+00 
S    1    1.000000
   3.60000000E-02    1.00000000E+00 
P    1    1.000000
   7.50000000E-01    1.00000000E+00 

[MO]
Sym=X
Ene=5.6e-05
Spin=Alpha
Occup=1
1    -6.16127317e-05
2    -0.000307761097
3    -0.00105422746
4    -0.00250856344
5    -0.000874143222
6    -0.00324261128
7    -0.000125094012
8    -7.74263297e-05
9    -4.35057328e-16
10    -0.000518000221
11    -0.000577072493
12    -0.000300636692
13    1.66295691e-15
14    0.000964520238
15    0.000300888997
16    0.000591008294
17    5.9943297e-16
18    0.00287292718
19    0.00017401354
20    0.00148434459
21    -5.72728268e-14
22    0.000243105313
23    -2.34190911e-05
24    0.000275599956
25    7.61674717e-14
26    -0.000305537412
27    3.04671048e-16
28    2.56179876e-05
29    7.49170924e-16
30    -0.000210307074
31    -5.7555854e-06
32    -5.4769358e-05
33    -0.000107219233
34    -0.000322045928
35    -1.32112932e-05
36    6.27529423e-06
37    -1.35739858e-15
38    -3.08615529e-05
39    -7.40756223e-05
40    0.000407562924
41    0.000750236149
42    -5.99994869e-05
43    -7.07305233e-05
44    -3.88841742e-17
45    -1.14480495e-05
46    -3.79431162e-05
47    -4.05413184e-05
48    -0.000246490227
49    -5.69270889e-06
50    2.89948743e-06
51    1.12642684e-15
52    7.43832111e-05
53    0.00057580894
54    0.00287267618
55    0.00986170603
56    0.023305871
57    0.00850493249
58    0.0311875286
59    4.83507068e-05
60    -3.44322363e-05
61    -1.85170632e-15
62    3.22468099e-05
63    -6.01243726e-05
64    4.88498086e-05
65    -2.10009787e-16
66    0.000699654778
67    0.000540542301
68    -0.000294143427
69    -4.68890451e-15
70    -0.000153543628
71    0.00015986397
72    0.000129263492
73    -8.3198432e-14
74    -0.000122928315
75    7.66262227e-05
76    -3.48215394e-05
77    -6.62470038e-14
78    -2.11839362e-05
79    4.47592472e-16
80    -2.58194391e-05
81    1.19596652e-15
82    8.16049398e-06
83    -1.64654669e-06
84    -1.25281618e-05
85    -6.14225526e-05
86    -0.000209096943
87    -0.000516609699
88    -0.000244638129
89    -0.000750941094
90    1.4362091e-05
91    -7.88093943e-06
92    -7.78237018e-16
93    8.23203866e-06
94    2.26227258e-05
95    -1.67350622e-05
96    -2.49582687e-15
97    9.58659727e-05
98    3.67874617e-05
99    -2.02243115e-05
100    -3.51801531e-15
101    0.000608583435
102    0.00016531366
103    -0.000101603492
104    3.7133852e-15
105    6.81996075e-05
106    -6.53611777e-05
107    -0.000110481479
108    2.99206604e-14
109    -1.60165497e-05
110    2.09184165e-16
111    -8.96726867e-06
112    -4.28507221e-16
113    7.31465118e-06
114    -5.50270993e-05
115    -0.000426017605
116    -0.00212493153
117    -0.00729574398
118    -0.0172243835
119    -0.00614112471
120    -0.0230782499
121    4.43549236e-05
122    5.44350775e-05
123    4.26276675e-15
124    -0.000630524121
125    -8.0783165e-06
126    0.0006488325
127    3.88494471e-15
128    0.000530792786
129    -0.000476334192
130    -0.000926998328
131    1.39040721e-14
132    0.00220486808
133    -0.000828215843
134    -0.00124344682
135    -6.78188621e-14
136    0.000362875949
137    7.42474512e-05
138    -9.90561814e-06
139    4.58330493e-14
140    -7.65269532e-05
141    3.21559542e-16
142    8.53687969e-05
143    3.992938e-16
144    0.000358414776
145    1.82208904e-06
146    1.38203065e-05
147    6.80623341e-05
148    0.000230544553
149    0.000581353696
150    0.000313808921
151    0.00079969809
152    1.47743327e-07
153    -1.81809373e-05
154    2.01926602e-15
155    -9.46156669e-05
156    7.26912955e-05
157    6.24072887e-05
158    5.77043544e-15
159    0.000198723442
160    -0.000134096681
161    -4.54791072e-06
162    3.27806107e-15
163    0.000819274803
164    -0.000100739592
165    -3.1265024e-05
166    1.51056655e-14
167    0.00193952852
168    -0.000393040794
169    -9.91981394e-05
170    2.37752203e-15
171    -4.14628405e-05
172    -6.67437649e-16
173    7.19419175e-06
174    -6.77599339e-16
175    1.96089894e-05
176    5.20434439e-06
177    3.95807563e-05
178    0.000194253534
179    0.000658126146
180    0.00160277135
181    0.000726091592
182    0.00218709828
183    1.58231446e-05
184    -1.59243015e-05
185    -1.03787918e-15
186    -2.25325968e-05
187    -0.000164270642
188    3.5696259e-05
189    6.87676678e-15
190    -0.000298447053
191    0.000216526655
192    0.000226842303
193    -1.47502002e-14
194    -0.000607387235
195    0.000336355285
196    0.000320982452
197    6.04385805e-14
198    -0.000747999031
199    -0.00063329238
200    0.000190883523
201    4.38784055e-14
202    6.34648955e-05
203    -2.52798393e-16
204    4.54576366e-06
205    7.48264606e-16
206    -1.35823296e-05
207    -9.65114805e-07
208    -7.39093994e-06
209    -3.59181248e-05
210    -0.000123095124
211    -0.000286886942
212    -8.99202984e-05
213    -0.00044060232
214    2.67982049e-05
215    -2.76212746e-06
216    -3.11163035e-15
217    -3.38591282e-05
218    -0.000104570204
219    9.31396441e-05
220    2.78708491e-15
221    -0.000303165722
222    -0.000149805473
223    -0.000203145882
224    -1.61914048e-14
225    -0.00100911127
226    -0.000433267977
227    -0.000289284823
228    5.39340643e-14
229    -0.000592279208
230    -5.37426568e-05
231    -0.000221409694
232    7.93708441e-15
233    2.7851973e-05
234    -3.87994515e-17
235    6.03330681e-06
236    2.48046843e-16
237    -6.27818961e-05
238    -0.00110521596
239    -0.00855628885
240    -0.042681349
241    -0.146545703
242    -0.346171779
243    -0.126604885
244    -0.463382464
245    0.000183215422
246    -0.000235301141
247    7.14562097e-16
248    -0.0018287179
249    3.47986204e-05
250    0.000125355624
251    6.17831788e-15
252    -0.00182973109
253    0.000777766587
254    -0.000584461391
255    -4.67313911e-15
256    -0.0053015128
257    0.00109051381
258    -0.00111722327
259    7.71962483e-14
260    -0.000296711341
261    -9.49068326e-05
262    -0.000244934395
263    -8.39370514e-14
264    -6.84368194e-05
265    6.03439647e-16
266    9.58312569e-05
267    2.46572283e-16
268    -7.07103076e-05
269    -0.000378210362
270    -0.000450383379
271    -0.000271523041
272    -0.00049101311
273    0.000267175357
274    -0.0001558456
275    1.05187669e-15
[5D]