[Molden Format]
[Atoms] (Angs)
  C      1    6     -0.00714236     -1.70213747     -0.00000000
  H      2    1     -2.06882847     -1.44022412      0.00000000
  H      3    1     -0.12337987     -2.77567521      0.00000000
  H      4    1      0.04651892      1.98813947     -0.00000000
  C      5    6     -1.21953563      0.40211669      0.00000000
  O      6    8     -2.25921553      1.03043814      0.00000000
  C      7    6      1.28797806      0.34644937     -0.00000000
  O      8    8      2.31273661      1.00537216     -0.00000000
  N      9    7      0.03446295      0.97739857     -0.00000000
  N     10    7     -1.17287765     -0.98229824      0.00000000
  C     11    6      1.20107039     -1.10433419     -0.00000000
  H     12    1      2.11220096     -1.67699125     -0.00000000
[GTO]
1    0
S    1    1.000000
   4.56324000E+03    1.96665000E-03 
S    1    1.000000
   6.82024000E+02    1.52306000E-02 
S    1    1.000000
   1.54973000E+02    7.61269000E-02 
S    1    1.000000
   4.44553000E+01    2.60801000E-01 
S    1    1.000000
   1.30290000E+01    6.16462000E-01 
S    1    1.000000
   1.82773000E+00    2.21006000E-01 
SP   3    1.000000
   2.09642000E+01    1.14660000E-01   4.02487000E-02 
   4.80331000E+00    9.19999000E-01   2.37594000E-01 
   1.45933000E+00   -3.03068000E-03   8.15854000E-01 
SP   1    1.000000
   4.83456000E-01    1.00000000E+00   1.00000000E+00 
SP   1    1.000000
   1.45585000E-01    1.00000000E+00   1.00000000E+00 
SP   1    1.000000
   4.38000000E-02    1.00000000E+00   1.00000000E+00 
SP   1    1.000000
   1.31927711E-02    1.00000000E+00   1.00000000E+00 
D    1    1.000000
   6.26000000E-01    1.00000000E+00 

2    0
S    3    1.000000
   3.38650000E+01    2.54938000E-02 
   5.09479000E+00    1.90373000E-01 
   1.15879000E+00    8.52161000E-01 
S    1    1.000000
   3.25840000E-01    1.00000000E+00 
S    1    1.000000
   1.02741000E-01    1.00000000E+00 
S    1    1.000000
   3.60000000E-02    1.00000000E+00 
P    1    1.000000
   7.50000000E-01    1.00000000E+00 

3    0
S    3    1.000000
   3.38650000E+01    2.54938000E-02 
   5.09479000E+00    1.90373000E-01 
   1.15879000E+00    8.52161000E-01 
S    1    1.000000
   3.25840000E-01    1.00000000E+00 
S    1    1.000000
   1.02741000E-01    1.00000000E+00 
S    1    1.000000
   3.60000000E-02    1.00000000E+00 
P    1    1.000000
   7.50000000E-01    1.00000000E+00 

4    0
S    3    1.000000
   3.38650000E+01    2.54938000E-02 
   5.09479000E+00    1.90373000E-01 
   1.15879000E+00    8.52161000E-01 
S    1    1.000000
   3.25840000E-01    1.00000000E+00 
S    1    1.000000
   1.02741000E-01    1.00000000E+00 
S    1    1.000000
   3.60000000E-02    1.00000000E+00 
P    1    1.000000
   7.50000000E-01    1.00000000E+00 

5    0
S    1    1.000000
   4.56324000E+03    1.96665000E-03 
S    1    1.000000
   6.82024000E+02    1.52306000E-02 
S    1    1.000000
   1.54973000E+02    7.61269000E-02 
S    1    1.000000
   4.44553000E+01    2.60801000E-01 
S    1    1.000000
   1.30290000E+01    6.16462000E-01 
S    1    1.000000
   1.82773000E+00    2.21006000E-01 
SP   3    1.000000
   2.09642000E+01    1.14660000E-01   4.02487000E-02 
   4.80331000E+00    9.19999000E-01   2.37594000E-01 
   1.45933000E+00   -3.03068000E-03   8.15854000E-01 
SP   1    1.000000
   4.83456000E-01    1.00000000E+00   1.00000000E+00 
SP   1    1.000000
   1.45585000E-01    1.00000000E+00   1.00000000E+00 
SP   1    1.000000
   4.38000000E-02    1.00000000E+00   1.00000000E+00 
SP   1    1.000000
   1.31927711E-02    1.00000000E+00   1.00000000E+00 
D    1    1.000000
   6.26000000E-01    1.00000000E+00 

6    0
S    1    1.000000
   8.58850000E+03    1.89515000E-03 
S    1    1.000000
   1.29723000E+03    1.43859000E-02 
S    1    1.000000
   2.99296000E+02    7.07320000E-02 
S    1    1.000000
   8.73771000E+01    2.40001000E-01 
S    1    1.000000
   2.56789000E+01    5.94797000E-01 
S    1    1.000000
   3.74004000E+00    2.80802000E-01 
SP   3    1.000000
   4.21175000E+01    1.13889000E-01   3.65114000E-02 
   9.62837000E+00    9.20811000E-01   2.37153000E-01 
   2.85332000E+00   -3.27447000E-03   8.19702000E-01 
SP   1    1.000000
   9.05661000E-01    1.00000000E+00   1.00000000E+00 
SP   1    1.000000
   2.55611000E-01    1.00000000E+00   1.00000000E+00 
SP   1    1.000000
   8.45000000E-02    1.00000000E+00   1.00000000E+00 
SP   1    1.000000
   2.54518072E-02    1.00000000E+00   1.00000000E+00 
D    1    1.000000
   1.29200000E+00    1.00000000E+00 

7    0
S    1    1.000000
   4.56324000E+03    1.96665000E-03 
S    1    1.000000
   6.82024000E+02    1.52306000E-02 
S    1    1.000000
   1.54973000E+02    7.61269000E-02 
S    1    1.000000
   4.44553000E+01    2.60801000E-01 
S    1    1.000000
   1.30290000E+01    6.16462000E-01 
S    1    1.000000
   1.82773000E+00    2.21006000E-01 
SP   3    1.000000
   2.09642000E+01    1.14660000E-01   4.02487000E-02 
   4.80331000E+00    9.19999000E-01   2.37594000E-01 
   1.45933000E+00   -3.03068000E-03   8.15854000E-01 
SP   1    1.000000
   4.83456000E-01    1.00000000E+00   1.00000000E+00 
SP   1    1.000000
   1.45585000E-01    1.00000000E+00   1.00000000E+00 
SP   1    1.000000
   4.38000000E-02    1.00000000E+00   1.00000000E+00 
SP   1    1.000000
   1.31927711E-02    1.00000000E+00   1.00000000E+00 
D    1    1.000000
   6.26000000E-01    1.00000000E+00 

8    0
S    1    1.000000
   8.58850000E+03    1.89515000E-03 
S    1    1.000000
   1.29723000E+03    1.43859000E-02 
S    1    1.000000
   2.99296000E+02    7.07320000E-02 
S    1    1.000000
   8.73771000E+01    2.40001000E-01 
S    1    1.000000
   2.56789000E+01    5.94797000E-01 
S    1    1.000000
   3.74004000E+00    2.80802000E-01 
SP   3    1.000000
   4.21175000E+01    1.13889000E-01   3.65114000E-02 
   9.62837000E+00    9.20811000E-01   2.37153000E-01 
   2.85332000E+00   -3.27447000E-03   8.19702000E-01 
SP   1    1.000000
   9.05661000E-01    1.00000000E+00   1.00000000E+00 
SP   1    1.000000
   2.55611000E-01    1.00000000E+00   1.00000000E+00 
SP   1    1.000000
   8.45000000E-02    1.00000000E+00   1.00000000E+00 
SP   1    1.000000
   2.54518072E-02    1.00000000E+00   1.00000000E+00 
D    1    1.000000
   1.29200000E+00    1.00000000E+00 

9    0
S    1    1.000000
   6.29348000E+03    1.96979000E-03 
S    1    1.000000
   9.49044000E+02    1.49613000E-02 
S    1    1.000000
   2.18776000E+02    7.35006000E-02 
S    1    1.000000
   6.36916000E+01    2.48937000E-01 
S    1    1.000000
   1.88282000E+01    6.02460000E-01 
S    1    1.000000
   2.72023000E+00    2.56202000E-01 
SP   3    1.000000
   3.06331000E+01    1.11906000E-01   3.83119000E-02 
   7.02614000E+00    9.21666000E-01   2.37403000E-01 
   2.11205000E+00   -2.56919000E-03   8.17592000E-01 
SP   1    1.000000
   6.84009000E-01    1.00000000E+00   1.00000000E+00 
SP   1    1.000000
   2.00878000E-01    1.00000000E+00   1.00000000E+00 
SP   1    1.000000
   6.39000000E-02    1.00000000E+00   1.00000000E+00 
SP   1    1.000000
   1.92469880E-02    1.00000000E+00   1.00000000E+00 
D    1    1.000000
   9.13000000E-01    1.00000000E+00 

10    0
S    1    1.000000
   6.29348000E+03    1.96979000E-03 
S    1    1.000000
   9.49044000E+02    1.49613000E-02 
S    1    1.000000
   2.18776000E+02    7.35006000E-02 
S    1    1.000000
   6.36916000E+01    2.48937000E-01 
S    1    1.000000
   1.88282000E+01    6.02460000E-01 
S    1    1.000000
   2.72023000E+00    2.56202000E-01 
SP   3    1.000000
   3.06331000E+01    1.11906000E-01   3.83119000E-02 
   7.02614000E+00    9.21666000E-01   2.37403000E-01 
   2.11205000E+00   -2.56919000E-03   8.17592000E-01 
SP   1    1.000000
   6.84009000E-01    1.00000000E+00   1.00000000E+00 
SP   1    1.000000
   2.00878000E-01    1.00000000E+00   1.00000000E+00 
SP   1    1.000000
   6.39000000E-02    1.00000000E+00   1.00000000E+00 
SP   1    1.000000
   1.92469880E-02    1.00000000E+00   1.00000000E+00 
D    1    1.000000
   9.13000000E-01    1.00000000E+00 

11    0
S    1    1.000000
   4.56324000E+03    1.96665000E-03 
S    1    1.000000
   6.82024000E+02    1.52306000E-02 
S    1    1.000000
   1.54973000E+02    7.61269000E-02 
S    1    1.000000
   4.44553000E+01    2.60801000E-01 
S    1    1.000000
   1.30290000E+01    6.16462000E-01 
S    1    1.000000
   1.82773000E+00    2.21006000E-01 
SP   3    1.000000
   2.09642000E+01    1.14660000E-01   4.02487000E-02 
   4.80331000E+00    9.19999000E-01   2.37594000E-01 
   1.45933000E+00   -3.03068000E-03   8.15854000E-01 
SP   1    1.000000
   4.83456000E-01    1.00000000E+00   1.00000000E+00 
SP   1    1.000000
   1.45585000E-01    1.00000000E+00   1.00000000E+00 
SP   1    1.000000
   4.38000000E-02    1.00000000E+00   1.00000000E+00 
SP   1    1.000000
   1.31927711E-02    1.00000000E+00   1.00000000E+00 
D    1    1.000000
   6.26000000E-01    1.00000000E+00 

12    0
S    3    1.000000
   3.38650000E+01    2.54938000E-02 
   5.09479000E+00    1.90373000E-01 
   1.15879000E+00    8.52161000E-01 
S    1    1.000000
   3.25840000E-01    1.00000000E+00 
S    1    1.000000
   1.02741000E-01    1.00000000E+00 
S    1    1.000000
   3.60000000E-02    1.00000000E+00 
P    1    1.000000
   7.50000000E-01    1.00000000E+00 

[MO]
Sym=X
Ene=0.919821
Spin=Alpha
Occup=1
1    -0.00858759985
2    -0.0428385441
3    -0.147078409
4    -0.347443787
5    -0.126694156
6    -0.465268976
7    0.00111197593
8    -0.000316578635
9    6.84817765e-16
10    -0.00168170367
11    -0.00107366916
12    5.877001e-05
13    -2.59187607e-15
14    -0.00145901671
15    0.000308235507
16    -0.000846296547
17    9.02861418e-15
18    -0.00084941669
19    0.000707015676
20    -0.000536998439
21    -8.45609473e-14
22    0.000156919173
23    -7.57730492e-05
24    3.5807461e-05
25    7.15964323e-14
26    -0.000370655606
27    1.45280382e-16
28    0.000238047662
29    1.38996303e-15
30    -9.3571836e-05
31    -2.9135741e-05
32    -5.24086018e-05
33    -3.90052622e-05
34    9.55484255e-05
35    -4.69505173e-05
36    -1.53611421e-05
37    -1.43385293e-15
38    -0.00038072399
39    -0.00046507778
40    -0.000232007115
41    -0.000123220851
42    -4.28731545e-05
43    -0.000309266851
44    5.75565017e-17
45    -1.26791047e-05
46    5.63596389e-05
47    -0.000242195882
48    -0.000257663493
49    -5.71194166e-06
50    -4.61423891e-06
51    -1.42608155e-15
52    -1.96549618e-07
53    -1.5536107e-06
54    -7.52342654e-06
55    -2.66881521e-05
56    -5.37597658e-05
57    2.49623117e-05
58    -0.000107800404
59    5.08270557e-06
60    -2.13274505e-05
61    -6.6059438e-15
62    -0.000111079657
63    -1.90826244e-05
64    8.45702606e-05
65    -8.11087737e-15
66    -0.000219672521
67    0.000642839325
68    -0.000404508187
69    -1.31468249e-14
70    -0.000676766335
71    0.000323333472
72    -0.000575616009
73    -1.01984789e-13
74    -0.000506887581
75    -0.00017414741
76    -8.73393069e-06
77    -7.54352126e-14
78    1.81558224e-05
79    -9.3845879e-16
80    -4.13196249e-06
81    2.08266639e-15
82    4.45547432e-05
83    2.63034678e-09
84    -6.09830413e-09
85    1.59079145e-07
86    -1.65003178e-07
87    6.4493762e-06
88    2.59839054e-05
89    -1.43271569e-05
90    4.19052387e-06
91    -1.92119639e-06
92    -4.75517502e-15
93    -7.03622048e-05
94    -2.67798618e-05
95    2.61154715e-05
96    -7.04554401e-15
97    0.000306522402
98    0.000158068107
99    -8.76150067e-05
100    -1.4654043e-14
101    0.00103612366
102    0.000163538296
103    -0.000139068611
104    1.49465428e-15
105    0.00135765622
106    0.000274753091
107    -4.89758972e-05
108    2.79700483e-14
109    2.37487987e-06
110    1.3664259e-15
111    -7.13985484e-07
112    -1.39809706e-15
113    5.38692111e-06
114    4.65191281e-08
115    3.07721098e-07
116    1.91338627e-06
117    5.1010509e-06
118    2.59251801e-05
119    6.37792426e-05
120    -1.42438522e-05
121    -7.01171129e-06
122    -2.48411646e-05
123    2.05752191e-15
124    -0.000102212268
125    3.1309399e-05
126    0.000127720342
127    3.82034771e-15
128    -0.00020795053
129    0.000185914067
130    0.000109980592
131    1.02503118e-14
132    0.000174813252
133    -0.000265470019
134    -0.000249127007
135    -9.43634197e-14
136    -3.68605389e-05
137    -0.000189944948
138    7.2044525e-05
139    4.12404416e-14
140    -3.67022299e-05
141    -4.20864428e-17
142    7.26317317e-06
143    1.95293523e-15
144    5.60501234e-05
145    6.61669337e-10
146    6.05902567e-09
147    2.28657783e-08
148    1.02985086e-07
149    -5.63829514e-08
150    -1.28618554e-06
151    1.30717043e-06
152    -8.40474669e-07
153    -2.91942843e-06
154    1.46282948e-15
155    6.55148313e-06
156    8.1120868e-06
157    2.11023049e-05
158    6.34400149e-15
159    -0.00010665159
160    -2.10137146e-06
161    -3.56749953e-07
162    -1.52223527e-15
163    0.000117877752
164    4.48189104e-06
165    1.39719309e-05
166    2.69080464e-14
167    6.56253915e-06
168    -1.8095835e-05
169    4.70245336e-05
170    4.56258456e-15
171    -4.70600196e-06
172    -2.77175783e-16
173    1.33479784e-06
174    -1.10091749e-16
175    6.95950328e-06
176    -1.34541081e-09
177    -5.04396045e-08
178    4.18029159e-08
179    -9.72861324e-07
180    7.74934757e-06
181    3.71638177e-05
182    -2.42617743e-05
183    1.44056998e-07
184    -8.21651954e-06
185    -3.60733626e-15
186    -7.07158961e-05
187    4.00160253e-06
188    3.10283146e-05
189    2.0000933e-15
190    -3.50811521e-05
191    5.09907162e-05
192    -1.86390404e-05
193    -2.24419542e-14
194    -9.2493219e-05
195    -0.000165961626
196    0.000546418988
197    6.95508601e-14
198    -0.000763942279
199    0.000289061746
200    0.000129065847
201    7.4218735e-14
202    -5.68419329e-06
203    3.01454712e-16
204    2.92072569e-06
205    1.83860625e-15
206    -6.5600773e-06
207    3.22122171e-07
208    2.27913235e-06
209    1.25373209e-05
210    3.78725134e-05
211    0.000138442845
212    0.000280060796
213    7.3286471e-05
214    -6.72989615e-05
215    4.05560914e-05
216    -5.20536753e-15
217    -0.000672971993
218    -0.000734013517
219    0.000444324621
220    2.73385553e-15
221    8.94861138e-05
222    1.48801018e-05
223    -8.47346892e-05
224    -2.83376456e-14
225    0.00130440689
226    0.000447202236
227    -0.000372915446
228    6.7955995e-14
229    0.000574812444
230    0.000319500813
231    -5.83721745e-05
232    3.216007e-14
233    0.000328723071
234    -8.44057233e-16
235    0.000130420011
236    1.58240618e-16
237    -0.000183647118
238    -1.25979883e-05
239    -9.73766077e-05
240    -0.000486715755
241    -0.00166664712
242    -0.00397629106
243    -0.00152722947
244    -0.00513486006
245    0.000152496888
246    7.06606036e-05
247    1.36778741e-15
248    -0.000189870086
249    0.000239619322
250    0.00010773358
251    5.81396568e-15
252    0.000780221831
253    -0.000584282183
254    0.000258349938
255    -5.85163988e-15
256    -0.00119238516
257    3.54292326e-05
258    0.000621238738
259    1.06499082e-13
260    0.000217819642
261    0.000169141909
262    0.000106120482
263    -6.08722892e-14
264    -0.000164736938
265    1.88707807e-16
266    -4.99007679e-05
267    1.17724251e-15
268    -0.000150507673
269    -2.99356901e-05
270    -2.71327212e-05
271    0.000356902069
272    0.000279635461
273    8.84018751e-05
274    1.31715105e-05
275    1.81568906e-15
[5D]