[Molden Format]
[Atoms] (Angs)
  C      1    6     -0.00714236     -1.70213747     -0.00000000
  H      2    1     -2.06882847     -1.44022412      0.00000000
  H      3    1     -0.12337987     -2.77567521      0.00000000
  H      4    1      0.04651892      1.98813947     -0.00000000
  C      5    6     -1.21953563      0.40211669      0.00000000
  O      6    8     -2.25921553      1.03043814      0.00000000
  C      7    6      1.28797806      0.34644937     -0.00000000
  O      8    8      2.31273661      1.00537216     -0.00000000
  N      9    7      0.03446295      0.97739857     -0.00000000
  N     10    7     -1.17287765     -0.98229824      0.00000000
  C     11    6      1.20107039     -1.10433419     -0.00000000
  H     12    1      2.11220096     -1.67699125     -0.00000000
[GTO]
1    0
S    1    1.000000
   4.56324000E+03    1.96665000E-03 
S    1    1.000000
   6.82024000E+02    1.52306000E-02 
S    1    1.000000
   1.54973000E+02    7.61269000E-02 
S    1    1.000000
   4.44553000E+01    2.60801000E-01 
S    1    1.000000
   1.30290000E+01    6.16462000E-01 
S    1    1.000000
   1.82773000E+00    2.21006000E-01 
SP   3    1.000000
   2.09642000E+01    1.14660000E-01   4.02487000E-02 
   4.80331000E+00    9.19999000E-01   2.37594000E-01 
   1.45933000E+00   -3.03068000E-03   8.15854000E-01 
SP   1    1.000000
   4.83456000E-01    1.00000000E+00   1.00000000E+00 
SP   1    1.000000
   1.45585000E-01    1.00000000E+00   1.00000000E+00 
SP   1    1.000000
   4.38000000E-02    1.00000000E+00   1.00000000E+00 
SP   1    1.000000
   1.31927711E-02    1.00000000E+00   1.00000000E+00 
D    1    1.000000
   6.26000000E-01    1.00000000E+00 

2    0
S    3    1.000000
   3.38650000E+01    2.54938000E-02 
   5.09479000E+00    1.90373000E-01 
   1.15879000E+00    8.52161000E-01 
S    1    1.000000
   3.25840000E-01    1.00000000E+00 
S    1    1.000000
   1.02741000E-01    1.00000000E+00 
S    1    1.000000
   3.60000000E-02    1.00000000E+00 
P    1    1.000000
   7.50000000E-01    1.00000000E+00 

3    0
S    3    1.000000
   3.38650000E+01    2.54938000E-02 
   5.09479000E+00    1.90373000E-01 
   1.15879000E+00    8.52161000E-01 
S    1    1.000000
   3.25840000E-01    1.00000000E+00 
S    1    1.000000
   1.02741000E-01    1.00000000E+00 
S    1    1.000000
   3.60000000E-02    1.00000000E+00 
P    1    1.000000
   7.50000000E-01    1.00000000E+00 

4    0
S    3    1.000000
   3.38650000E+01    2.54938000E-02 
   5.09479000E+00    1.90373000E-01 
   1.15879000E+00    8.52161000E-01 
S    1    1.000000
   3.25840000E-01    1.00000000E+00 
S    1    1.000000
   1.02741000E-01    1.00000000E+00 
S    1    1.000000
   3.60000000E-02    1.00000000E+00 
P    1    1.000000
   7.50000000E-01    1.00000000E+00 

5    0
S    1    1.000000
   4.56324000E+03    1.96665000E-03 
S    1    1.000000
   6.82024000E+02    1.52306000E-02 
S    1    1.000000
   1.54973000E+02    7.61269000E-02 
S    1    1.000000
   4.44553000E+01    2.60801000E-01 
S    1    1.000000
   1.30290000E+01    6.16462000E-01 
S    1    1.000000
   1.82773000E+00    2.21006000E-01 
SP   3    1.000000
   2.09642000E+01    1.14660000E-01   4.02487000E-02 
   4.80331000E+00    9.19999000E-01   2.37594000E-01 
   1.45933000E+00   -3.03068000E-03   8.15854000E-01 
SP   1    1.000000
   4.83456000E-01    1.00000000E+00   1.00000000E+00 
SP   1    1.000000
   1.45585000E-01    1.00000000E+00   1.00000000E+00 
SP   1    1.000000
   4.38000000E-02    1.00000000E+00   1.00000000E+00 
SP   1    1.000000
   1.31927711E-02    1.00000000E+00   1.00000000E+00 
D    1    1.000000
   6.26000000E-01    1.00000000E+00 

6    0
S    1    1.000000
   8.58850000E+03    1.89515000E-03 
S    1    1.000000
   1.29723000E+03    1.43859000E-02 
S    1    1.000000
   2.99296000E+02    7.07320000E-02 
S    1    1.000000
   8.73771000E+01    2.40001000E-01 
S    1    1.000000
   2.56789000E+01    5.94797000E-01 
S    1    1.000000
   3.74004000E+00    2.80802000E-01 
SP   3    1.000000
   4.21175000E+01    1.13889000E-01   3.65114000E-02 
   9.62837000E+00    9.20811000E-01   2.37153000E-01 
   2.85332000E+00   -3.27447000E-03   8.19702000E-01 
SP   1    1.000000
   9.05661000E-01    1.00000000E+00   1.00000000E+00 
SP   1    1.000000
   2.55611000E-01    1.00000000E+00   1.00000000E+00 
SP   1    1.000000
   8.45000000E-02    1.00000000E+00   1.00000000E+00 
SP   1    1.000000
   2.54518072E-02    1.00000000E+00   1.00000000E+00 
D    1    1.000000
   1.29200000E+00    1.00000000E+00 

7    0
S    1    1.000000
   4.56324000E+03    1.96665000E-03 
S    1    1.000000
   6.82024000E+02    1.52306000E-02 
S    1    1.000000
   1.54973000E+02    7.61269000E-02 
S    1    1.000000
   4.44553000E+01    2.60801000E-01 
S    1    1.000000
   1.30290000E+01    6.16462000E-01 
S    1    1.000000
   1.82773000E+00    2.21006000E-01 
SP   3    1.000000
   2.09642000E+01    1.14660000E-01   4.02487000E-02 
   4.80331000E+00    9.19999000E-01   2.37594000E-01 
   1.45933000E+00   -3.03068000E-03   8.15854000E-01 
SP   1    1.000000
   4.83456000E-01    1.00000000E+00   1.00000000E+00 
SP   1    1.000000
   1.45585000E-01    1.00000000E+00   1.00000000E+00 
SP   1    1.000000
   4.38000000E-02    1.00000000E+00   1.00000000E+00 
SP   1    1.000000
   1.31927711E-02    1.00000000E+00   1.00000000E+00 
D    1    1.000000
   6.26000000E-01    1.00000000E+00 

8    0
S    1    1.000000
   8.58850000E+03    1.89515000E-03 
S    1    1.000000
   1.29723000E+03    1.43859000E-02 
S    1    1.000000
   2.99296000E+02    7.07320000E-02 
S    1    1.000000
   8.73771000E+01    2.40001000E-01 
S    1    1.000000
   2.56789000E+01    5.94797000E-01 
S    1    1.000000
   3.74004000E+00    2.80802000E-01 
SP   3    1.000000
   4.21175000E+01    1.13889000E-01   3.65114000E-02 
   9.62837000E+00    9.20811000E-01   2.37153000E-01 
   2.85332000E+00   -3.27447000E-03   8.19702000E-01 
SP   1    1.000000
   9.05661000E-01    1.00000000E+00   1.00000000E+00 
SP   1    1.000000
   2.55611000E-01    1.00000000E+00   1.00000000E+00 
SP   1    1.000000
   8.45000000E-02    1.00000000E+00   1.00000000E+00 
SP   1    1.000000
   2.54518072E-02    1.00000000E+00   1.00000000E+00 
D    1    1.000000
   1.29200000E+00    1.00000000E+00 

9    0
S    1    1.000000
   6.29348000E+03    1.96979000E-03 
S    1    1.000000
   9.49044000E+02    1.49613000E-02 
S    1    1.000000
   2.18776000E+02    7.35006000E-02 
S    1    1.000000
   6.36916000E+01    2.48937000E-01 
S    1    1.000000
   1.88282000E+01    6.02460000E-01 
S    1    1.000000
   2.72023000E+00    2.56202000E-01 
SP   3    1.000000
   3.06331000E+01    1.11906000E-01   3.83119000E-02 
   7.02614000E+00    9.21666000E-01   2.37403000E-01 
   2.11205000E+00   -2.56919000E-03   8.17592000E-01 
SP   1    1.000000
   6.84009000E-01    1.00000000E+00   1.00000000E+00 
SP   1    1.000000
   2.00878000E-01    1.00000000E+00   1.00000000E+00 
SP   1    1.000000
   6.39000000E-02    1.00000000E+00   1.00000000E+00 
SP   1    1.000000
   1.92469880E-02    1.00000000E+00   1.00000000E+00 
D    1    1.000000
   9.13000000E-01    1.00000000E+00 

10    0
S    1    1.000000
   6.29348000E+03    1.96979000E-03 
S    1    1.000000
   9.49044000E+02    1.49613000E-02 
S    1    1.000000
   2.18776000E+02    7.35006000E-02 
S    1    1.000000
   6.36916000E+01    2.48937000E-01 
S    1    1.000000
   1.88282000E+01    6.02460000E-01 
S    1    1.000000
   2.72023000E+00    2.56202000E-01 
SP   3    1.000000
   3.06331000E+01    1.11906000E-01   3.83119000E-02 
   7.02614000E+00    9.21666000E-01   2.37403000E-01 
   2.11205000E+00   -2.56919000E-03   8.17592000E-01 
SP   1    1.000000
   6.84009000E-01    1.00000000E+00   1.00000000E+00 
SP   1    1.000000
   2.00878000E-01    1.00000000E+00   1.00000000E+00 
SP   1    1.000000
   6.39000000E-02    1.00000000E+00   1.00000000E+00 
SP   1    1.000000
   1.92469880E-02    1.00000000E+00   1.00000000E+00 
D    1    1.000000
   9.13000000E-01    1.00000000E+00 

11    0
S    1    1.000000
   4.56324000E+03    1.96665000E-03 
S    1    1.000000
   6.82024000E+02    1.52306000E-02 
S    1    1.000000
   1.54973000E+02    7.61269000E-02 
S    1    1.000000
   4.44553000E+01    2.60801000E-01 
S    1    1.000000
   1.30290000E+01    6.16462000E-01 
S    1    1.000000
   1.82773000E+00    2.21006000E-01 
SP   3    1.000000
   2.09642000E+01    1.14660000E-01   4.02487000E-02 
   4.80331000E+00    9.19999000E-01   2.37594000E-01 
   1.45933000E+00   -3.03068000E-03   8.15854000E-01 
SP   1    1.000000
   4.83456000E-01    1.00000000E+00   1.00000000E+00 
SP   1    1.000000
   1.45585000E-01    1.00000000E+00   1.00000000E+00 
SP   1    1.000000
   4.38000000E-02    1.00000000E+00   1.00000000E+00 
SP   1    1.000000
   1.31927711E-02    1.00000000E+00   1.00000000E+00 
D    1    1.000000
   6.26000000E-01    1.00000000E+00 

12    0
S    3    1.000000
   3.38650000E+01    2.54938000E-02 
   5.09479000E+00    1.90373000E-01 
   1.15879000E+00    8.52161000E-01 
S    1    1.000000
   3.25840000E-01    1.00000000E+00 
S    1    1.000000
   1.02741000E-01    1.00000000E+00 
S    1    1.000000
   3.60000000E-02    1.00000000E+00 
P    1    1.000000
   7.50000000E-01    1.00000000E+00 

[MO]
Sym=X
Ene=0.025712
Spin=Alpha
Occup=1
1    -0.000106680592
2    -0.00053243503
3    -0.00182699818
4    -0.00432624176
5    -0.00162442262
6    -0.00575560148
7    -3.05145067e-06
8    -1.83392086e-05
9    8.95302253e-16
10    9.67067063e-05
11    0.000105377425
12    0.000103052542
13    -2.01052942e-15
14    -9.96987598e-05
15    -9.01699822e-05
16    9.44017402e-05
17    4.89013614e-15
18    -0.00177434544
19    -1.38789229e-05
20    -0.000633375449
21    -2.97079575e-14
22    2.40905335e-05
23    9.56834089e-05
24    -0.000213417944
25    -5.25261756e-14
26    7.03137305e-05
27    6.66436097e-16
28    3.20262689e-06
29    5.13375122e-16
30    1.19535283e-05
31    1.00859668e-05
32    -3.93086053e-05
33    0.000213261924
34    0.000325768724
35    7.36188741e-07
36    -4.80290166e-06
37    -6.10238327e-16
38    -5.00834692e-06
39    8.3863071e-05
40    -4.19795352e-05
41    -2.51925394e-05
42    1.61394563e-05
43    1.56884473e-05
44    2.75044273e-16
45    3.42268525e-05
46    5.23496917e-05
47    0.000128925545
48    -0.000236003389
49    -1.22816712e-05
50    -4.14159516e-05
51    3.21076183e-16
52    -1.20352691e-06
53    -9.28824192e-06
54    -4.65401983e-05
55    -0.000158993341
56    -0.000383666036
57    -0.000174850776
58    -0.000483504531
59    -1.82647144e-05
60    -1.34945944e-06
61    -1.28081375e-15
62    7.10467361e-05
63    5.23983328e-05
64    2.62191348e-06
65    2.80212109e-16
66    -4.71704815e-05
67    -0.00047034375
68    0.000223310924
69    -3.75728009e-15
70    0.000567780871
71    -0.000126301456
72    -0.00026866438
73    -2.45788601e-14
74    -0.000483218418
75    -0.000188213597
76    -5.80495029e-05
77    -9.63221652e-15
78    5.89294393e-06
79    4.14782948e-16
80    2.28957483e-06
81    7.81406648e-16
82    4.37082506e-05
83    -4.48036758e-09
84    -2.14720321e-08
85    -1.96674191e-07
86    -3.26986316e-07
87    -4.10137306e-06
88    -1.28084104e-05
89    5.34953143e-06
90    -1.26947643e-06
91    1.01771429e-06
92    -5.52317357e-16
93    3.52666809e-05
94    1.89710247e-05
95    -9.01241164e-07
96    -7.87224119e-16
97    -0.000172972464
98    -8.05024559e-05
99    6.31944917e-05
100    -3.55123158e-15
101    -0.000754276071
102    -0.00023442713
103    6.02307451e-05
104    3.41149013e-15
105    -0.000197461103
106    5.33134141e-05
107    0.000208308108
108    -1.31028772e-14
109    5.28689875e-06
110    6.96303827e-16
111    1.49632011e-06
112    -7.58912182e-17
113    5.05209586e-06
114    0.00110944015
115    0.00858871825
116    0.0428454858
117    0.147096242
118    0.347517241
119    0.126434333
120    0.46543226
121    -0.000740012838
122    0.00049128188
123    2.08157285e-15
124    0.00162693907
125    0.000805762229
126    -0.000242804463
127    4.7439327e-15
128    0.00152260992
129    -0.000286150175
130    0.000417537858
131    4.01098425e-15
132    -0.00235619171
133    0.000151055152
134    0.00241546009
135    -3.31338725e-14
136    -0.00026110365
137    -0.000300355244
138    4.65770447e-05
139    -1.55608573e-15
140    0.000334813089
141    2.12757191e-16
142    -0.000254660799
143    1.69242501e-16
144    -4.98771952e-05
145    1.12357751e-07
146    9.58709528e-07
147    3.76385517e-06
148    1.5815483e-05
149    1.42275385e-05
150    -0.000122292259
151    2.8175431e-05
152    -0.000205881595
153    -0.000137621755
154    1.85647796e-15
155    0.000644780163
156    -0.000558253999
157    -0.000371513206
158    1.69096578e-15
159    -0.000267005658
160    0.000229123657
161    0.000115069163
162    2.45343077e-15
163    -0.000364741417
164    -7.06368376e-05
165    -0.000188557074
166    1.22087345e-14
167    -0.00221465189
168    0.000592601707
169    6.53347482e-05
170    -7.48835863e-15
171    0.000256572538
172    -2.33202754e-16
173    -0.000114634849
174    -3.94494817e-16
175    0.000114038329
176    -6.6178475e-07
177    -4.85510262e-06
178    -2.52177352e-05
179    -8.05784205e-05
180    -0.000243297247
181    -0.000311974021
182    -0.00020976229
183    4.49460176e-05
184    -3.86702342e-05
185    -1.09242146e-16
186    0.000567417201
187    0.000695410458
188    -0.000328451069
189    4.61357022e-15
190    5.21890997e-05
191    -0.000161797897
192    -0.000157797046
193    -5.4366071e-15
194    -0.00125197351
195    -0.00101844433
196    -1.11350507e-05
197    2.71347652e-14
198    0.000425270855
199    0.00065483449
200    9.28718596e-05
201    1.39347869e-14
202    -0.00026886965
203    -8.37838349e-17
204    -0.000123635528
205    7.90818696e-16
206    0.000215783051
207    7.11653034e-08
208    5.78248293e-07
209    2.5734749e-06
210    9.74510242e-06
211    1.44358701e-05
212    -2.37879962e-05
213    5.24429094e-05
214    -7.95859776e-06
215    -1.19672586e-06
216    -1.70500886e-15
217    6.13455994e-05
218    1.89969172e-05
219    1.36879451e-05
220    -2.28356115e-16
221    -8.9349235e-06
222    -2.56265217e-05
223    3.57246291e-05
224    -5.95647461e-15
225    0.000135144424
226    0.000463181409
227    7.42720888e-05
228    1.04763998e-14
229    0.000743832678
230    -1.79159901e-05
231    0.000351260175
232    4.49282024e-14
233    -5.3115472e-06
234    2.35919863e-16
235    -2.19352036e-06
236    1.27622097e-16
237    -5.32227878e-06
238    4.11639445e-06
239    3.18281271e-05
240    0.000158968913
241    0.000544467211
242    0.00129211272
243    0.000434180635
244    0.00168158629
245    -3.67534541e-08
246    9.07665573e-05
247    1.29223656e-15
248    0.000295810838
249    7.7140901e-05
250    0.000490232786
251    2.42555497e-15
252    -0.000185289221
253    4.12203679e-05
254    -0.00026828121
255    9.65146303e-16
256    0.00602184374
257    -0.000265913624
258    0.0014408542
259    3.12108575e-14
260    0.00062636329
261    0.000101010642
262    0.00036759844
263    3.17103296e-14
264    3.33367687e-05
265    7.6171187e-16
266    -2.29281307e-05
267    2.2511131e-17
268    -0.000285157496
269    2.5404812e-05
270    9.15617784e-05
271    -0.000174655256
272    0.000271290854
273    -3.59346706e-05
274    7.25551013e-05
275    5.11290979e-16
[5D]