[Molden Format]
[Atoms] (Angs)
  C      1    6     -0.00714236     -1.70213747     -0.00000000
  H      2    1     -2.06882847     -1.44022412      0.00000000
  H      3    1     -0.12337987     -2.77567521      0.00000000
  H      4    1      0.04651892      1.98813947     -0.00000000
  C      5    6     -1.21953563      0.40211669      0.00000000
  O      6    8     -2.25921553      1.03043814      0.00000000
  C      7    6      1.28797806      0.34644937     -0.00000000
  O      8    8      2.31273661      1.00537216     -0.00000000
  N      9    7      0.03446295      0.97739857     -0.00000000
  N     10    7     -1.17287765     -0.98229824      0.00000000
  C     11    6      1.20107039     -1.10433419     -0.00000000
  H     12    1      2.11220096     -1.67699125     -0.00000000
[GTO]
1    0
S    1    1.000000
   4.56324000E+03    1.96665000E-03 
S    1    1.000000
   6.82024000E+02    1.52306000E-02 
S    1    1.000000
   1.54973000E+02    7.61269000E-02 
S    1    1.000000
   4.44553000E+01    2.60801000E-01 
S    1    1.000000
   1.30290000E+01    6.16462000E-01 
S    1    1.000000
   1.82773000E+00    2.21006000E-01 
SP   3    1.000000
   2.09642000E+01    1.14660000E-01   4.02487000E-02 
   4.80331000E+00    9.19999000E-01   2.37594000E-01 
   1.45933000E+00   -3.03068000E-03   8.15854000E-01 
SP   1    1.000000
   4.83456000E-01    1.00000000E+00   1.00000000E+00 
SP   1    1.000000
   1.45585000E-01    1.00000000E+00   1.00000000E+00 
SP   1    1.000000
   4.38000000E-02    1.00000000E+00   1.00000000E+00 
SP   1    1.000000
   1.31927711E-02    1.00000000E+00   1.00000000E+00 
D    1    1.000000
   6.26000000E-01    1.00000000E+00 

2    0
S    3    1.000000
   3.38650000E+01    2.54938000E-02 
   5.09479000E+00    1.90373000E-01 
   1.15879000E+00    8.52161000E-01 
S    1    1.000000
   3.25840000E-01    1.00000000E+00 
S    1    1.000000
   1.02741000E-01    1.00000000E+00 
S    1    1.000000
   3.60000000E-02    1.00000000E+00 
P    1    1.000000
   7.50000000E-01    1.00000000E+00 

3    0
S    3    1.000000
   3.38650000E+01    2.54938000E-02 
   5.09479000E+00    1.90373000E-01 
   1.15879000E+00    8.52161000E-01 
S    1    1.000000
   3.25840000E-01    1.00000000E+00 
S    1    1.000000
   1.02741000E-01    1.00000000E+00 
S    1    1.000000
   3.60000000E-02    1.00000000E+00 
P    1    1.000000
   7.50000000E-01    1.00000000E+00 

4    0
S    3    1.000000
   3.38650000E+01    2.54938000E-02 
   5.09479000E+00    1.90373000E-01 
   1.15879000E+00    8.52161000E-01 
S    1    1.000000
   3.25840000E-01    1.00000000E+00 
S    1    1.000000
   1.02741000E-01    1.00000000E+00 
S    1    1.000000
   3.60000000E-02    1.00000000E+00 
P    1    1.000000
   7.50000000E-01    1.00000000E+00 

5    0
S    1    1.000000
   4.56324000E+03    1.96665000E-03 
S    1    1.000000
   6.82024000E+02    1.52306000E-02 
S    1    1.000000
   1.54973000E+02    7.61269000E-02 
S    1    1.000000
   4.44553000E+01    2.60801000E-01 
S    1    1.000000
   1.30290000E+01    6.16462000E-01 
S    1    1.000000
   1.82773000E+00    2.21006000E-01 
SP   3    1.000000
   2.09642000E+01    1.14660000E-01   4.02487000E-02 
   4.80331000E+00    9.19999000E-01   2.37594000E-01 
   1.45933000E+00   -3.03068000E-03   8.15854000E-01 
SP   1    1.000000
   4.83456000E-01    1.00000000E+00   1.00000000E+00 
SP   1    1.000000
   1.45585000E-01    1.00000000E+00   1.00000000E+00 
SP   1    1.000000
   4.38000000E-02    1.00000000E+00   1.00000000E+00 
SP   1    1.000000
   1.31927711E-02    1.00000000E+00   1.00000000E+00 
D    1    1.000000
   6.26000000E-01    1.00000000E+00 

6    0
S    1    1.000000
   8.58850000E+03    1.89515000E-03 
S    1    1.000000
   1.29723000E+03    1.43859000E-02 
S    1    1.000000
   2.99296000E+02    7.07320000E-02 
S    1    1.000000
   8.73771000E+01    2.40001000E-01 
S    1    1.000000
   2.56789000E+01    5.94797000E-01 
S    1    1.000000
   3.74004000E+00    2.80802000E-01 
SP   3    1.000000
   4.21175000E+01    1.13889000E-01   3.65114000E-02 
   9.62837000E+00    9.20811000E-01   2.37153000E-01 
   2.85332000E+00   -3.27447000E-03   8.19702000E-01 
SP   1    1.000000
   9.05661000E-01    1.00000000E+00   1.00000000E+00 
SP   1    1.000000
   2.55611000E-01    1.00000000E+00   1.00000000E+00 
SP   1    1.000000
   8.45000000E-02    1.00000000E+00   1.00000000E+00 
SP   1    1.000000
   2.54518072E-02    1.00000000E+00   1.00000000E+00 
D    1    1.000000
   1.29200000E+00    1.00000000E+00 

7    0
S    1    1.000000
   4.56324000E+03    1.96665000E-03 
S    1    1.000000
   6.82024000E+02    1.52306000E-02 
S    1    1.000000
   1.54973000E+02    7.61269000E-02 
S    1    1.000000
   4.44553000E+01    2.60801000E-01 
S    1    1.000000
   1.30290000E+01    6.16462000E-01 
S    1    1.000000
   1.82773000E+00    2.21006000E-01 
SP   3    1.000000
   2.09642000E+01    1.14660000E-01   4.02487000E-02 
   4.80331000E+00    9.19999000E-01   2.37594000E-01 
   1.45933000E+00   -3.03068000E-03   8.15854000E-01 
SP   1    1.000000
   4.83456000E-01    1.00000000E+00   1.00000000E+00 
SP   1    1.000000
   1.45585000E-01    1.00000000E+00   1.00000000E+00 
SP   1    1.000000
   4.38000000E-02    1.00000000E+00   1.00000000E+00 
SP   1    1.000000
   1.31927711E-02    1.00000000E+00   1.00000000E+00 
D    1    1.000000
   6.26000000E-01    1.00000000E+00 

8    0
S    1    1.000000
   8.58850000E+03    1.89515000E-03 
S    1    1.000000
   1.29723000E+03    1.43859000E-02 
S    1    1.000000
   2.99296000E+02    7.07320000E-02 
S    1    1.000000
   8.73771000E+01    2.40001000E-01 
S    1    1.000000
   2.56789000E+01    5.94797000E-01 
S    1    1.000000
   3.74004000E+00    2.80802000E-01 
SP   3    1.000000
   4.21175000E+01    1.13889000E-01   3.65114000E-02 
   9.62837000E+00    9.20811000E-01   2.37153000E-01 
   2.85332000E+00   -3.27447000E-03   8.19702000E-01 
SP   1    1.000000
   9.05661000E-01    1.00000000E+00   1.00000000E+00 
SP   1    1.000000
   2.55611000E-01    1.00000000E+00   1.00000000E+00 
SP   1    1.000000
   8.45000000E-02    1.00000000E+00   1.00000000E+00 
SP   1    1.000000
   2.54518072E-02    1.00000000E+00   1.00000000E+00 
D    1    1.000000
   1.29200000E+00    1.00000000E+00 

9    0
S    1    1.000000
   6.29348000E+03    1.96979000E-03 
S    1    1.000000
   9.49044000E+02    1.49613000E-02 
S    1    1.000000
   2.18776000E+02    7.35006000E-02 
S    1    1.000000
   6.36916000E+01    2.48937000E-01 
S    1    1.000000
   1.88282000E+01    6.02460000E-01 
S    1    1.000000
   2.72023000E+00    2.56202000E-01 
SP   3    1.000000
   3.06331000E+01    1.11906000E-01   3.83119000E-02 
   7.02614000E+00    9.21666000E-01   2.37403000E-01 
   2.11205000E+00   -2.56919000E-03   8.17592000E-01 
SP   1    1.000000
   6.84009000E-01    1.00000000E+00   1.00000000E+00 
SP   1    1.000000
   2.00878000E-01    1.00000000E+00   1.00000000E+00 
SP   1    1.000000
   6.39000000E-02    1.00000000E+00   1.00000000E+00 
SP   1    1.000000
   1.92469880E-02    1.00000000E+00   1.00000000E+00 
D    1    1.000000
   9.13000000E-01    1.00000000E+00 

10    0
S    1    1.000000
   6.29348000E+03    1.96979000E-03 
S    1    1.000000
   9.49044000E+02    1.49613000E-02 
S    1    1.000000
   2.18776000E+02    7.35006000E-02 
S    1    1.000000
   6.36916000E+01    2.48937000E-01 
S    1    1.000000
   1.88282000E+01    6.02460000E-01 
S    1    1.000000
   2.72023000E+00    2.56202000E-01 
SP   3    1.000000
   3.06331000E+01    1.11906000E-01   3.83119000E-02 
   7.02614000E+00    9.21666000E-01   2.37403000E-01 
   2.11205000E+00   -2.56919000E-03   8.17592000E-01 
SP   1    1.000000
   6.84009000E-01    1.00000000E+00   1.00000000E+00 
SP   1    1.000000
   2.00878000E-01    1.00000000E+00   1.00000000E+00 
SP   1    1.000000
   6.39000000E-02    1.00000000E+00   1.00000000E+00 
SP   1    1.000000
   1.92469880E-02    1.00000000E+00   1.00000000E+00 
D    1    1.000000
   9.13000000E-01    1.00000000E+00 

11    0
S    1    1.000000
   4.56324000E+03    1.96665000E-03 
S    1    1.000000
   6.82024000E+02    1.52306000E-02 
S    1    1.000000
   1.54973000E+02    7.61269000E-02 
S    1    1.000000
   4.44553000E+01    2.60801000E-01 
S    1    1.000000
   1.30290000E+01    6.16462000E-01 
S    1    1.000000
   1.82773000E+00    2.21006000E-01 
SP   3    1.000000
   2.09642000E+01    1.14660000E-01   4.02487000E-02 
   4.80331000E+00    9.19999000E-01   2.37594000E-01 
   1.45933000E+00   -3.03068000E-03   8.15854000E-01 
SP   1    1.000000
   4.83456000E-01    1.00000000E+00   1.00000000E+00 
SP   1    1.000000
   1.45585000E-01    1.00000000E+00   1.00000000E+00 
SP   1    1.000000
   4.38000000E-02    1.00000000E+00   1.00000000E+00 
SP   1    1.000000
   1.31927711E-02    1.00000000E+00   1.00000000E+00 
D    1    1.000000
   6.26000000E-01    1.00000000E+00 

12    0
S    3    1.000000
   3.38650000E+01    2.54938000E-02 
   5.09479000E+00    1.90373000E-01 
   1.15879000E+00    8.52161000E-01 
S    1    1.000000
   3.25840000E-01    1.00000000E+00 
S    1    1.000000
   1.02741000E-01    1.00000000E+00 
S    1    1.000000
   3.60000000E-02    1.00000000E+00 
P    1    1.000000
   7.50000000E-01    1.00000000E+00 

[MO]
Sym=X
Ene=2.3e-05
Spin=Alpha
Occup=1
1    -0.00525556397
2    -0.0262169013
3    -0.0900111099
4    -0.212631007
5    -0.0775090136
6    -0.28474533
7    0.000659379747
8    -0.000192557985
9    1.70778488e-17
10    -0.00113069725
11    -0.000660690877
12    -2.44643648e-05
13    -2.83728317e-15
14    -0.000539811576
15    0.000159487246
16    -0.000367244683
17    4.74561534e-15
18    -0.0025182677
19    6.64195263e-05
20    -0.00108902138
21    -6.54649626e-14
22    -0.000127919281
23    9.71047286e-05
24    1.99651895e-05
25    1.50381012e-14
26    -0.000219431411
27    -2.75477487e-16
28    0.000135134542
29    -6.0751062e-17
30    -7.75735119e-05
31    -4.63398029e-05
32    -4.1914923e-05
33    -8.74027595e-05
34    -0.000104005347
35    -6.0423296e-05
36    -2.54013417e-05
37    -3.32222374e-16
38    -0.000244419085
39    -0.000307684668
40    -8.13815502e-05
41    -0.000666010623
42    -2.72874667e-05
43    -0.000206460735
44    2.05018799e-16
45    -3.35949828e-05
46    -1.09587618e-05
47    -8.2874118e-05
48    -0.000103367327
49    2.38789476e-06
50    3.83838387e-05
51    -9.15150623e-16
52    -0.00085669163
53    -0.00663208183
54    -0.0330846548
55    -0.113586745
56    -0.268346972
57    -0.0975705443
58    -0.359416134
59    -0.000490172351
60    0.00033438899
61    -2.89230731e-15
62    -0.00133838004
63    0.000553384496
64    -0.000316367102
65    8.02629296e-17
66    -0.00117980969
67    0.000213250648
68    -0.000147190463
69    -1.00311654e-14
70    -0.000194399361
71    0.0007813499
72    -0.000671147675
73    -5.00046278e-14
74    0.000305126474
75    -5.78892175e-05
76    -7.7276977e-05
77    -2.67960375e-14
78    0.000226966639
79    -9.96177906e-18
80    0.00018292279
81    1.78641506e-16
82    -9.80141219e-05
83    -2.16626349e-08
84    -2.566539e-07
85    -4.50610769e-07
86    -4.18404301e-06
87    1.15726379e-05
88    0.000110737932
89    2.2054724e-06
90    -0.000161267528
91    9.77886168e-05
92    -1.2563518e-15
93    -0.000510969715
94    -0.000432840985
95    0.00026413502
96    -1.86731701e-15
97    0.000420916448
98    0.000297939038
99    -0.000171127266
100    -3.4637094e-15
101    0.000675457479
102    -7.41527186e-05
103    1.63920624e-05
104    4.16535571e-15
105    0.00155550511
106    0.000267602144
107    -0.000152836378
108    5.34994046e-15
109    0.000185770448
110    3.24882248e-16
111    8.9075801e-05
112    -7.28186134e-16
113    -9.47296005e-05
114    -0.000156836872
115    -0.00121419923
116    -0.00605677242
117    -0.0207953027
118    -0.0491156412
119    -0.0178063959
120    -0.0658281262
121    8.64860831e-05
122    -7.53021145e-05
123    -1.71880312e-15
124    -0.000372667381
125    -5.51278982e-05
126    0.000163566222
127    -4.48407783e-15
128    -0.000338609014
129    -0.000191556163
130    -0.00017477891
131    2.27087567e-15
132    -0.0020037733
133    9.47498705e-05
134    7.33732102e-05
135    -9.82935113e-14
136    -0.000409463196
137    4.03858149e-05
138    0.000132770648
139    1.55225357e-14
140    -6.94293301e-05
141    -8.64779911e-17
142    4.34007544e-05
143    2.83040457e-17
144    4.44368837e-05
145    -2.81049996e-08
146    -2.41363764e-07
147    -9.57711662e-07
148    -4.03408997e-06
149    -3.11223656e-06
150    2.76915039e-05
151    -1.69605832e-05
152    2.71106626e-05
153    1.49133307e-05
154    -1.82548721e-15
155    -0.000120484664
156    0.00010431545
157    7.04479816e-05
158    3.87100695e-16
159    9.55642718e-05
160    -9.38455681e-05
161    -5.82641286e-05
162    -9.54705174e-15
163    0.000694421755
164    -0.000167910871
165    -5.4914989e-05
166    1.59676873e-14
167    0.000524349128
168    -0.000150976577
169    -7.65260401e-05
170    1.00052092e-14
171    -3.94527023e-05
172    3.18093069e-16
173    1.66788814e-05
174    5.80384029e-16
175    -1.35939754e-05
176    1.75852141e-05
177    0.000133735299
178    0.000656511735
179    0.00222411742
180    0.00541953825
181    0.00251179674
182    0.00743237527
183    4.98820052e-05
184    3.07174758e-05
185    -3.07369326e-15
186    -0.000483553734
187    0.000381927347
188    0.000295868348
189    1.75565238e-15
190    -1.09523864e-06
191    -7.79078731e-05
192    4.19688333e-05
193    -1.90873584e-14
194    0.00039234735
195    -0.000307339213
196    0.000145467794
197    5.53496614e-14
198    -0.000571031429
199    0.000114013186
200    5.38490946e-05
201    3.82323757e-14
202    -0.000139476581
203    1.36238892e-16
204    9.67260296e-05
205    7.05908297e-17
206    -0.000196251328
207    -4.96801135e-06
208    -3.80493728e-05
209    -0.000184669018
210    -0.000632872097
211    -0.00147025071
212    -0.000353026493
213    -0.00219613318
214    -4.42981531e-05
215    -3.87155959e-05
216    -2.18033931e-15
217    -0.000870578177
218    -0.000434788822
219    -0.000268092256
220    2.47051634e-15
221    8.48207063e-05
222    -4.91639185e-05
223    5.54001946e-05
224    -1.23584682e-14
225    0.00101455053
226    8.59186943e-05
227    -8.76590713e-05
228    4.14565826e-14
229    0.000112765102
230    0.000295108177
231    -0.000337215115
232    3.94592863e-14
233    0.000225934652
234    -7.76000962e-17
235    0.000159134661
236    -3.52869948e-16
237    0.000128734539
238    -0.000105732299
239    -0.000818472237
240    -0.00408326165
241    -0.0140174475
242    -0.0331315698
243    -0.0121333755
244    -0.0442474994
245    0.000102995083
246    1.20903824e-05
247    -1.75547459e-15
248    -0.0003754643
249    0.000193067943
250    -3.13769163e-06
251    1.85796512e-16
252    0.0002407951
253    -0.00020279496
254    9.74518353e-05
255    -1.27010175e-14
256    0.00215951932
257    -0.000544706827
258    0.000520711742
259    8.65357301e-14
260    8.59316918e-05
261    1.49044539e-05
262    1.26202386e-05
263    -2.050391e-14
264    -0.000130833857
265    -7.81215943e-16
266    -2.03021541e-05
267    4.7101968e-16
268    -6.2126825e-05
269    -5.89505945e-05
270    -0.000109861812
271    0.000209612176
272    0.000172459072
273    9.34452298e-05
274    -2.11796712e-05
275    -1.66317094e-16
[5D]