[Molden Format]
[Atoms] (Angs)
  C      1    6     -0.00714236     -1.70213747     -0.00000000
  H      2    1     -2.06882847     -1.44022412      0.00000000
  H      3    1     -0.12337987     -2.77567521      0.00000000
  H      4    1      0.04651892      1.98813947     -0.00000000
  C      5    6     -1.21953563      0.40211669      0.00000000
  O      6    8     -2.25921553      1.03043814      0.00000000
  C      7    6      1.28797806      0.34644937     -0.00000000
  O      8    8      2.31273661      1.00537216     -0.00000000
  N      9    7      0.03446295      0.97739857     -0.00000000
  N     10    7     -1.17287765     -0.98229824      0.00000000
  C     11    6      1.20107039     -1.10433419     -0.00000000
  H     12    1      2.11220096     -1.67699125     -0.00000000
[GTO]
1    0
S    1    1.000000
   4.56324000E+03    1.96665000E-03 
S    1    1.000000
   6.82024000E+02    1.52306000E-02 
S    1    1.000000
   1.54973000E+02    7.61269000E-02 
S    1    1.000000
   4.44553000E+01    2.60801000E-01 
S    1    1.000000
   1.30290000E+01    6.16462000E-01 
S    1    1.000000
   1.82773000E+00    2.21006000E-01 
SP   3    1.000000
   2.09642000E+01    1.14660000E-01   4.02487000E-02 
   4.80331000E+00    9.19999000E-01   2.37594000E-01 
   1.45933000E+00   -3.03068000E-03   8.15854000E-01 
SP   1    1.000000
   4.83456000E-01    1.00000000E+00   1.00000000E+00 
SP   1    1.000000
   1.45585000E-01    1.00000000E+00   1.00000000E+00 
SP   1    1.000000
   4.38000000E-02    1.00000000E+00   1.00000000E+00 
SP   1    1.000000
   1.31927711E-02    1.00000000E+00   1.00000000E+00 
D    1    1.000000
   6.26000000E-01    1.00000000E+00 

2    0
S    3    1.000000
   3.38650000E+01    2.54938000E-02 
   5.09479000E+00    1.90373000E-01 
   1.15879000E+00    8.52161000E-01 
S    1    1.000000
   3.25840000E-01    1.00000000E+00 
S    1    1.000000
   1.02741000E-01    1.00000000E+00 
S    1    1.000000
   3.60000000E-02    1.00000000E+00 
P    1    1.000000
   7.50000000E-01    1.00000000E+00 

3    0
S    3    1.000000
   3.38650000E+01    2.54938000E-02 
   5.09479000E+00    1.90373000E-01 
   1.15879000E+00    8.52161000E-01 
S    1    1.000000
   3.25840000E-01    1.00000000E+00 
S    1    1.000000
   1.02741000E-01    1.00000000E+00 
S    1    1.000000
   3.60000000E-02    1.00000000E+00 
P    1    1.000000
   7.50000000E-01    1.00000000E+00 

4    0
S    3    1.000000
   3.38650000E+01    2.54938000E-02 
   5.09479000E+00    1.90373000E-01 
   1.15879000E+00    8.52161000E-01 
S    1    1.000000
   3.25840000E-01    1.00000000E+00 
S    1    1.000000
   1.02741000E-01    1.00000000E+00 
S    1    1.000000
   3.60000000E-02    1.00000000E+00 
P    1    1.000000
   7.50000000E-01    1.00000000E+00 

5    0
S    1    1.000000
   4.56324000E+03    1.96665000E-03 
S    1    1.000000
   6.82024000E+02    1.52306000E-02 
S    1    1.000000
   1.54973000E+02    7.61269000E-02 
S    1    1.000000
   4.44553000E+01    2.60801000E-01 
S    1    1.000000
   1.30290000E+01    6.16462000E-01 
S    1    1.000000
   1.82773000E+00    2.21006000E-01 
SP   3    1.000000
   2.09642000E+01    1.14660000E-01   4.02487000E-02 
   4.80331000E+00    9.19999000E-01   2.37594000E-01 
   1.45933000E+00   -3.03068000E-03   8.15854000E-01 
SP   1    1.000000
   4.83456000E-01    1.00000000E+00   1.00000000E+00 
SP   1    1.000000
   1.45585000E-01    1.00000000E+00   1.00000000E+00 
SP   1    1.000000
   4.38000000E-02    1.00000000E+00   1.00000000E+00 
SP   1    1.000000
   1.31927711E-02    1.00000000E+00   1.00000000E+00 
D    1    1.000000
   6.26000000E-01    1.00000000E+00 

6    0
S    1    1.000000
   8.58850000E+03    1.89515000E-03 
S    1    1.000000
   1.29723000E+03    1.43859000E-02 
S    1    1.000000
   2.99296000E+02    7.07320000E-02 
S    1    1.000000
   8.73771000E+01    2.40001000E-01 
S    1    1.000000
   2.56789000E+01    5.94797000E-01 
S    1    1.000000
   3.74004000E+00    2.80802000E-01 
SP   3    1.000000
   4.21175000E+01    1.13889000E-01   3.65114000E-02 
   9.62837000E+00    9.20811000E-01   2.37153000E-01 
   2.85332000E+00   -3.27447000E-03   8.19702000E-01 
SP   1    1.000000
   9.05661000E-01    1.00000000E+00   1.00000000E+00 
SP   1    1.000000
   2.55611000E-01    1.00000000E+00   1.00000000E+00 
SP   1    1.000000
   8.45000000E-02    1.00000000E+00   1.00000000E+00 
SP   1    1.000000
   2.54518072E-02    1.00000000E+00   1.00000000E+00 
D    1    1.000000
   1.29200000E+00    1.00000000E+00 

7    0
S    1    1.000000
   4.56324000E+03    1.96665000E-03 
S    1    1.000000
   6.82024000E+02    1.52306000E-02 
S    1    1.000000
   1.54973000E+02    7.61269000E-02 
S    1    1.000000
   4.44553000E+01    2.60801000E-01 
S    1    1.000000
   1.30290000E+01    6.16462000E-01 
S    1    1.000000
   1.82773000E+00    2.21006000E-01 
SP   3    1.000000
   2.09642000E+01    1.14660000E-01   4.02487000E-02 
   4.80331000E+00    9.19999000E-01   2.37594000E-01 
   1.45933000E+00   -3.03068000E-03   8.15854000E-01 
SP   1    1.000000
   4.83456000E-01    1.00000000E+00   1.00000000E+00 
SP   1    1.000000
   1.45585000E-01    1.00000000E+00   1.00000000E+00 
SP   1    1.000000
   4.38000000E-02    1.00000000E+00   1.00000000E+00 
SP   1    1.000000
   1.31927711E-02    1.00000000E+00   1.00000000E+00 
D    1    1.000000
   6.26000000E-01    1.00000000E+00 

8    0
S    1    1.000000
   8.58850000E+03    1.89515000E-03 
S    1    1.000000
   1.29723000E+03    1.43859000E-02 
S    1    1.000000
   2.99296000E+02    7.07320000E-02 
S    1    1.000000
   8.73771000E+01    2.40001000E-01 
S    1    1.000000
   2.56789000E+01    5.94797000E-01 
S    1    1.000000
   3.74004000E+00    2.80802000E-01 
SP   3    1.000000
   4.21175000E+01    1.13889000E-01   3.65114000E-02 
   9.62837000E+00    9.20811000E-01   2.37153000E-01 
   2.85332000E+00   -3.27447000E-03   8.19702000E-01 
SP   1    1.000000
   9.05661000E-01    1.00000000E+00   1.00000000E+00 
SP   1    1.000000
   2.55611000E-01    1.00000000E+00   1.00000000E+00 
SP   1    1.000000
   8.45000000E-02    1.00000000E+00   1.00000000E+00 
SP   1    1.000000
   2.54518072E-02    1.00000000E+00   1.00000000E+00 
D    1    1.000000
   1.29200000E+00    1.00000000E+00 

9    0
S    1    1.000000
   6.29348000E+03    1.96979000E-03 
S    1    1.000000
   9.49044000E+02    1.49613000E-02 
S    1    1.000000
   2.18776000E+02    7.35006000E-02 
S    1    1.000000
   6.36916000E+01    2.48937000E-01 
S    1    1.000000
   1.88282000E+01    6.02460000E-01 
S    1    1.000000
   2.72023000E+00    2.56202000E-01 
SP   3    1.000000
   3.06331000E+01    1.11906000E-01   3.83119000E-02 
   7.02614000E+00    9.21666000E-01   2.37403000E-01 
   2.11205000E+00   -2.56919000E-03   8.17592000E-01 
SP   1    1.000000
   6.84009000E-01    1.00000000E+00   1.00000000E+00 
SP   1    1.000000
   2.00878000E-01    1.00000000E+00   1.00000000E+00 
SP   1    1.000000
   6.39000000E-02    1.00000000E+00   1.00000000E+00 
SP   1    1.000000
   1.92469880E-02    1.00000000E+00   1.00000000E+00 
D    1    1.000000
   9.13000000E-01    1.00000000E+00 

10    0
S    1    1.000000
   6.29348000E+03    1.96979000E-03 
S    1    1.000000
   9.49044000E+02    1.49613000E-02 
S    1    1.000000
   2.18776000E+02    7.35006000E-02 
S    1    1.000000
   6.36916000E+01    2.48937000E-01 
S    1    1.000000
   1.88282000E+01    6.02460000E-01 
S    1    1.000000
   2.72023000E+00    2.56202000E-01 
SP   3    1.000000
   3.06331000E+01    1.11906000E-01   3.83119000E-02 
   7.02614000E+00    9.21666000E-01   2.37403000E-01 
   2.11205000E+00   -2.56919000E-03   8.17592000E-01 
SP   1    1.000000
   6.84009000E-01    1.00000000E+00   1.00000000E+00 
SP   1    1.000000
   2.00878000E-01    1.00000000E+00   1.00000000E+00 
SP   1    1.000000
   6.39000000E-02    1.00000000E+00   1.00000000E+00 
SP   1    1.000000
   1.92469880E-02    1.00000000E+00   1.00000000E+00 
D    1    1.000000
   9.13000000E-01    1.00000000E+00 

11    0
S    1    1.000000
   4.56324000E+03    1.96665000E-03 
S    1    1.000000
   6.82024000E+02    1.52306000E-02 
S    1    1.000000
   1.54973000E+02    7.61269000E-02 
S    1    1.000000
   4.44553000E+01    2.60801000E-01 
S    1    1.000000
   1.30290000E+01    6.16462000E-01 
S    1    1.000000
   1.82773000E+00    2.21006000E-01 
SP   3    1.000000
   2.09642000E+01    1.14660000E-01   4.02487000E-02 
   4.80331000E+00    9.19999000E-01   2.37594000E-01 
   1.45933000E+00   -3.03068000E-03   8.15854000E-01 
SP   1    1.000000
   4.83456000E-01    1.00000000E+00   1.00000000E+00 
SP   1    1.000000
   1.45585000E-01    1.00000000E+00   1.00000000E+00 
SP   1    1.000000
   4.38000000E-02    1.00000000E+00   1.00000000E+00 
SP   1    1.000000
   1.31927711E-02    1.00000000E+00   1.00000000E+00 
D    1    1.000000
   6.26000000E-01    1.00000000E+00 

12    0
S    3    1.000000
   3.38650000E+01    2.54938000E-02 
   5.09479000E+00    1.90373000E-01 
   1.15879000E+00    8.52161000E-01 
S    1    1.000000
   3.25840000E-01    1.00000000E+00 
S    1    1.000000
   1.02741000E-01    1.00000000E+00 
S    1    1.000000
   3.60000000E-02    1.00000000E+00 
P    1    1.000000
   7.50000000E-01    1.00000000E+00 

[MO]
Sym=X
Ene=0.920893
Spin=Alpha
Occup=1
    1.33161333e-05
    0.000103167827
    0.00051422299
    0.00176794992
    0.00415791895
    0.00155588243
    0.00568591767
    -0.000148915767
    -7.1826752e-05
    -4.38475631e-16
    -0.000484878073
    -0.000547414339
    -0.000299155966
    1.44554296e-15
    0.0010128348
    0.000285089679
    0.000624622986
    7.05681596e-16
    0.00257404566
    0.000126168617
    0.00137459614
    -5.83754073e-14
    0.000219527938
    -1.49115881e-06
    0.0002577668
    6.93004557e-14
    -0.000292035985
    2.99026446e-16
    2.00897242e-05
    7.83929916e-16
    -0.000208537777
    -6.67093905e-06
    -5.6744328e-05
    -9.60676087e-05
    -0.000313223939
    -1.47554431e-05
    4.89072445e-06
    -1.44122106e-15
    -2.44591141e-05
    -6.08662642e-05
    0.000412802101
    0.000691459649
    -5.79710849e-05
    -6.46822275e-05
    -1.68781976e-17
    -1.2642512e-05
    -4.00526787e-05
    -2.33494212e-05
    -0.000253522557
    -5.80816316e-06
    4.58570342e-06
    1.11338244e-15
    -4.49289347e-08
    -3.72669482e-07
    -1.67968543e-06
    -6.46486983e-06
    -8.72705106e-06
    2.22192279e-05
    -3.47084154e-05
    3.87798989e-06
    -4.09590484e-06
    -2.01782004e-15
    -7.16004879e-05
    -9.80192859e-06
    1.45719482e-05
    -1.73350174e-16
    0.000607415702
    0.000480954502
    -0.000261061992
    -5.45630084e-15
    -8.01761609e-05
    0.000203856981
    9.13629071e-05
    -8.15343019e-14
    -8.21914395e-05
    7.20469742e-05
    -4.58278665e-05
    -6.3226045e-14
    -3.68272061e-06
    5.06595866e-16
    -9.47978191e-06
    1.20859748e-15
    -1.64971267e-06
    5.32390046e-10
    -3.92371817e-09
    3.81934402e-08
    -8.46887062e-08
    1.90155246e-06
    8.02698559e-06
    -4.68091721e-06
    2.583007e-06
    -6.77410041e-07
    -8.14902305e-16
    -2.08792838e-05
    -1.30799243e-05
    4.93932844e-06
    -2.59980712e-15
    9.70224955e-05
    4.62834756e-05
    -2.49240183e-05
    -3.54335972e-15
    0.000546083799
    0.000131282681
    -8.61093174e-05
    3.67923732e-15
    0.000109467523
    -5.54949603e-05
    -0.000107663095
    2.74472221e-14
    3.93200483e-07
    2.25279935e-16
    -1.18080899e-06
    -4.62740458e-16
    -1.19824303e-06
    4.36115645e-06
    3.37356511e-05
    0.000168585499
    0.000578308293
    0.00137834079
    0.000628354668
    0.0018360633
    3.88744354e-06
    8.1542478e-05
    4.26011842e-15
    -0.000548391709
    3.8408195e-05
    0.000634042803
    3.82184166e-15
    0.000617484762
    -0.000522401506
    -0.000918011229
    1.40276926e-14
    0.0018655734
    -0.000785471016
    -0.00105446416
    -7.11030671e-14
    0.000309518887
    7.00943899e-05
    -1.83907082e-06
    4.44681418e-14
    -5.73364433e-05
    3.17654882e-16
    7.1705965e-05
    3.91214404e-16
    0.000352684005
    -5.95159785e-09
    -8.13954404e-08
    -1.43758164e-07
    -1.45103459e-06
    6.12550574e-06
    3.51456274e-05
    -2.75623989e-05
    -8.320006e-06
    -2.39727911e-05
    2.02085273e-15
    -7.15767069e-05
    4.31748781e-05
    4.16748638e-05
    5.70227856e-15
    0.000196944431
    -0.000125752031
    -1.51674097e-06
    3.11902012e-15
    0.000837905958
    -0.00011910615
    -4.88010397e-05
    1.58840589e-14
    0.001820768
    -0.000361949695
    -0.000103871282
    3.05564916e-15
    -2.74113061e-05
    -6.59724759e-16
    1.2209186e-06
    -6.73537349e-16
    2.53025013e-05
    -8.71019615e-09
    -1.09884765e-07
    -2.30226089e-07
    -1.97478452e-06
    6.43644005e-06
    4.11127288e-05
    -3.24451687e-05
    2.41197506e-05
    -1.42229937e-05
    -1.12847118e-15
    -4.80925354e-05
    -8.62597823e-05
    3.70574862e-05
    7.00336805e-15
    -0.000289243444
    0.000195291647
    0.000220957248
    -1.52217615e-14
    -0.000660499999
    0.000254031246
    0.000297616119
    6.18364509e-14
    -0.000721397179
    -0.000591934236
    0.000194570027
    4.31544667e-14
    3.41012509e-05
    -2.63356536e-16
    4.24539391e-06
    7.72984299e-16
    -1.58527322e-05
    -1.19883435e-08
    -1.38149928e-07
    -3.45079688e-07
    -2.46320972e-06
    5.95993149e-06
    4.17822836e-05
    -3.53515557e-05
    2.75200955e-05
    -9.03141552e-06
    -3.18692383e-15
    -5.0756988e-05
    -8.72262083e-05
    3.78205617e-05
    2.48127669e-15
    -0.000301929179
    -0.000155834974
    -0.000188485719
    -1.5954168e-14
    -0.000998467653
    -0.000423618102
    -0.000261889107
    5.29537338e-14
    -0.000570943692
    -4.9271595e-05
    -0.000224284598
    1.21694171e-14
    2.29157971e-05
    -2.60099641e-17
    1.0231022e-05
    2.37535272e-16
    -3.82536445e-05
    -0.00110905849
    -0.00858604387
    -0.0428297316
    -0.147055389
    -0.347374136
    -0.127043047
    -0.46500011
    0.000180351728
    -0.000232442857
    6.68912897e-16
    -0.00182146233
    3.87404301e-05
    0.000148274442
    6.14912085e-15
    -0.0018696745
    0.000801711685
    -0.000609511643
    -4.92099332e-15
    -0.00460287182
    0.00101488039
    -0.00101734704
    7.93630878e-14
    -0.000265754879
    -9.75289726e-05
    -0.000223524823
    -7.85941579e-14
    -6.52888332e-05
    6.21578258e-16
    9.58496888e-05
    2.42444067e-16
    -8.31786155e-05
    -0.000378101329
    -0.00045019722
    -0.00028909712
    -0.000474492695
    0.000265484078
    -0.000153346434
    1.02179101e-15
Sym=X
Ene=0.918598
Spin=Alpha
Occup=1
    0.00110927566
    0.00858760053
    0.0428385475
    0.147078421
    0.347443815
    0.126694168
    0.465269013
    -0.00111197629
    0.000316578677
    -8.73512625e-16
    0.00168169752
    0.00107365858
    -5.87748265e-05
    2.3182725e-15
    0.00145902155
    -0.000308228193
    0.000846295099
    -8.60370409e-15
    0.000849537335
    -0.000707007517
    0.000537044238
    8.82540282e-14
    -0.000156913422
    7.57671117e-05
    -3.57979031e-05
    -6.48839172e-14
    0.000370649255
    -3.33416636e-16
    -0.000238047345
    6.41254418e-17
    9.35701975e-05
    2.91367153e-05
    5.24101187e-05
    3.89981571e-05
    -9.55597908e-05
    4.6951314e-05
    1.53618216e-05
    -2.1788214e-16
    0.000380724024
    0.000465074594
    0.000232010536
    0.000123235106
    4.28719536e-05
    0.000309266044
    -1.37631498e-16
    1.26782435e-05
    -5.63612133e-05
    0.000242188625
    0.000257668564
    5.71226467e-06
    4.61512875e-06
    6.89266403e-16
    2.11557144e-07
    1.66978984e-06
    8.10300691e-06
    2.86779298e-05
    5.84610451e-05
    -2.32510017e-05
    0.000114095335
    -5.07329783e-06
    2.13211885e-05
    2.29139189e-15
    0.000111099527
    1.90708291e-05
    -8.45648436e-05
    2.2309331e-16
    0.000219696854
    -0.000642812615
    0.000404495248
    4.87770097e-15
    0.000676735356
    -0.00032333869
    0.000575634026
    1.00815367e-13
    0.000506890774
    0.000174153242
    8.73659825e-06
    8.1015756e-14
    -1.81598901e-05
    4.9375079e-16
    4.12850983e-06
    -7.15472389e-16
    -4.45548758e-05
    -2.6380807e-09
    6.04028368e-09
    -1.59371994e-07
    1.64031341e-07
    -6.45195663e-06
    -2.59862707e-05
    1.43229931e-05
    -4.18762682e-06
    1.9194892e-06
    1.53931309e-15
    7.03687845e-05
    2.67863735e-05
    -2.61198244e-05
    1.50739585e-15
    -0.000306518196
    -0.000158067907
    8.76142497e-05
    6.91934303e-15
    -0.00103608947
    -0.000163524623
    0.000139063569
    -7.82663671e-15
    -0.00135766312
    -0.000274757776
    4.89689631e-05
    -2.70951097e-14
    -2.37837265e-06
    -7.80578632e-16
    7.12330666e-07
    4.81345462e-16
    -5.38544691e-06
    -8.7912217e-08
    -6.28165148e-07
    -3.51194604e-06
    -1.058919e-05
    -3.88909917e-05
    -6.84959968e-05
    -3.12111839e-06
    7.03962022e-06
    2.48233837e-05
    1.38998431e-16
    0.00010214851
    -3.13399404e-05
    -0.000127706686
    2.76440112e-16
    0.000207899468
    -0.000185901709
    -0.000110000725
    -4.47642467e-15
    -0.00017466285
    0.000265450255
    0.000249016784
    1.0148227e-13
    3.68803045e-05
    0.000189952927
    -7.20470188e-05
    -3.34891335e-14
    3.66892049e-05
    -1.57615346e-16
    -7.2531512e-06
    -3.50914676e-16
    -5.60452106e-05
    -3.70883802e-10
    -3.850903e-09
    -1.20034979e-08
    -6.61305895e-08
    1.48540557e-07
    1.33474129e-06
    -1.17508613e-06
    8.47692249e-07
    2.92414646e-06
    4.8818142e-16
    -6.57412992e-06
    -8.09106666e-06
    -2.10880562e-05
    -2.90136769e-15
    0.000106660762
    2.09276723e-06
    3.53160707e-07
    7.0470616e-15
    -0.000117866805
    -4.4768309e-06
    -1.39636321e-05
    -1.95220191e-14
    -6.46565863e-06
    1.80713875e-05
    -4.70260347e-05
    3.76480144e-15
    4.69617044e-06
    -6.2986905e-17
    -1.33053095e-06
    -2.63391027e-16
    -6.96351248e-06
    1.71324294e-09
    5.32350758e-08
    -2.80659086e-08
    1.01934702e-06
    -7.635591e-06
    -3.71094327e-05
    2.44162446e-05
    -1.46558268e-07
    8.21727376e-06
    2.3983841e-15
    7.07033113e-05
    -4.03675739e-06
    -3.10198692e-05
    -4.09581258e-15
    3.50757815e-05
    -5.0980682e-05
    1.86466238e-05
    2.01976222e-14
    9.25286125e-05
    0.00016600798
    -0.000546410983
    -6.84969739e-14
    0.000763919149
    -0.000289093899
    -0.000129066673
    -6.8177923e-14
    5.69762938e-06
    -2.3031581e-16
    -2.91742517e-06
    -4.16856379e-16
    6.55473999e-06
    -3.17842852e-07
    -2.24654945e-06
    -1.23776754e-05
    -3.73306131e-05
    -0.000137132703
    -0.000279499478
    -7.14638231e-05
    6.73002184e-05
    -4.05550001e-05
    3.00300864e-15
    0.000672993361
    0.000734011053
    -0.000444314996
    -6.78020474e-15
    -8.94905038e-05
    -1.48793688e-05
    8.47295551e-05
    2.28003276e-14
    -0.00130441498
    -0.000447217429
    0.000372909316
    -7.01269599e-14
    -0.000574836503
    -0.000319500502
    5.83623981e-05
    -2.75663985e-14
    -0.000328722879
    5.48945725e-17
    -0.000130420918
    1.63668496e-16
    0.000183642692
    1.25901043e-05
    9.73155737e-05
    0.000486411287
    0.00166560181
    0.00397382142
    0.00152632705
    0.00513155657
    -0.000152495375
    -7.06656134e-05
    2.87413322e-16
    0.000189847752
    -0.000239623165
    -0.000107750646
    -2.71777052e-15
    -0.000780226734
    0.000584285015
    -0.000258343512
    1.06851475e-14
    0.00119205765
    -3.54000076e-05
    -0.000621306513
    -9.98257176e-14
    -0.000217843896
    -0.00016914371
    -0.000106134027
    6.85836681e-14
    0.000164735563
    4.51492121e-16
    4.99022528e-05
    -6.63350554e-16
    0.0001505179
    2.99321808e-05
    2.71268488e-05
    -0.000356897605
    -0.000279650403
    -8.83988648e-05
    -1.31752026e-05
    -6.77709885e-16
Sym=X
Ene=0.926957
Spin=Alpha
Occup=1
    -1.01698002e-07
    -7.50018267e-07
    -4.00908607e-06
    -1.27426028e-05
    -4.04262669e-05
    -6.16425394e-05
    -1.63480117e-05
    -1.67526739e-05
    -1.44544278e-05
    8.85192386e-16
    0.000117478612
    0.000118499882
    0.000102347752
    -1.97822002e-15
    -8.18692204e-05
    -9.38130668e-05
    0.000104798607
    4.78576989e-15
    -0.00175973357
    -2.21054576e-05
    -0.000624426549
    -2.86228507e-14
    2.23126216e-05
    9.60461334e-05
    -0.000213649293
    -5.32113873e-14
    7.47982196e-05
    6.63048245e-16
    2.8768822e-07
    5.14690226e-16
    1.30954964e-05
    1.04806218e-05
    -3.86768511e-05
    0.000213713195
    0.000324567879
    1.36202723e-06
    -4.58487318e-06
    -6.12711538e-16
    -2.95890445e-07
    8.96065267e-05
    -3.9027402e-05
    -2.19634804e-05
    1.66530985e-05
    1.95145243e-05
    2.73058828e-16
    3.4512078e-05
    5.17600435e-05
    0.000131862058
    -0.000232856525
    -1.22202943e-05
    -4.1473842e-05
    3.30744241e-16
    4.02521297e-07
    3.14533456e-06
    1.54831809e-05
    5.39555426e-05
    0.000119320216
    7.53313199e-06
    0.000190568796
    -1.73820792e-05
    -1.72536277e-06
    -1.25138301e-15
    7.48464706e-05
    5.16763898e-05
    2.3399106e-06
    2.81341004e-16
    -4.23916554e-05
    -0.000477638427
    0.000227881369
    -3.68833856e-15
    0.00057574823
    -0.000130927281
    -0.000260911373
    -2.33771639e-14
    -0.000477833766
    -0.00018597886
    -5.74517856e-05
    -8.70915135e-15
    5.31897448e-06
    4.20138762e-16
    1.98350877e-06
    7.73514372e-16
    4.34501311e-05
    -1.96345337e-09
    -1.86162103e-09
    -1.04143282e-07
    7.85406034e-10
    -3.40786221e-06
    -1.2932555e-05
    6.63733551e-06
    -1.01514478e-06
    8.51148266e-07
    -5.3313063e-16
    3.70126877e-05
    2.00826357e-05
    -1.68762702e-06
    -7.69641631e-16
    -0.000177072649
    -8.27742741e-05
    6.44723725e-05
    -3.46704717e-15
    -0.00076667267
    -0.000236023285
    6.16851889e-05
    3.31012516e-15
    -0.000214480102
    4.98942112e-05
    0.000209059505
    -1.33987338e-14
    4.91223754e-06
    6.87010118e-16
    1.33500498e-06
    -6.95420918e-17
    5.17753438e-06
    0.00110952626
    0.00858938562
    0.0428488099
    0.147107674
    0.347544069
    0.126443436
    0.465468827
    -0.000739989616
    0.000491625329
    2.08744668e-15
    0.00162824405
    0.000805078538
    -0.000244437364
    4.75579697e-15
    0.00152571509
    -0.000287786286
    0.000416408897
    3.96055644e-15
    -0.00235406504
    0.00015545273
    0.00241832928
    -3.18433722e-14
    -0.00025982336
    -0.000297872358
    4.51365389e-05
    -1.90951395e-15
    0.000335116602
    2.10959946e-16
    -0.000254724922
    1.65524252e-16
    -5.05083305e-05
    -3.79191869e-07
    -2.78055133e-06
    -1.45709936e-05
    -4.65829552e-05
    -0.000140213432
    -0.000195531577
    -0.000193762421
    -0.000205146426
    -0.000137156481
    1.86544928e-15
    0.000642474944
    -0.000558779384
    -0.00037201084
    1.65981278e-15
    -0.000265563198
    0.000229434137
    0.000115262573
    2.54964724e-15
    -0.000368536655
    -7.03393723e-05
    -0.00018852304
    1.19667991e-14
    -0.00221815015
    0.00059347004
    6.50980858e-05
    -7.46395572e-15
    0.000256688992
    -2.34750983e-16
    -0.000114610919
    -3.98632292e-16
    0.000113998381
    -2.79589739e-07
    -1.94438877e-06
    -1.09610253e-05
    -3.21673905e-05
    -0.000126424585
    -0.000262501434
    -4.6583813e-05
    4.47912264e-05
    -3.86899233e-05
    -7.73978163e-17
    0.000570615732
    0.000694520249
    -0.000329259279
    4.56504809e-15
    5.23012804e-05
    -0.000162158041
    -0.000157575165
    -5.18084438e-15
    -0.00125062312
    -0.00101572295
    -1.78409472e-05
    2.6283006e-14
    0.000436400331
    0.000652550947
    9.11267164e-05
    1.31062969e-14
    -0.000268488501
    -8.6952577e-17
    -0.000123801613
    7.86477562e-16
    0.000216165109
    1.81719057e-09
    5.2587518e-08
    -2.07457713e-08
    1.00297348e-06
    -7.33669352e-06
    -3.61166678e-05
    2.37615858e-05
    -7.12882294e-06
    -1.58792743e-06
    -1.66830245e-15
    7.02070319e-05
    2.80040748e-05
    9.25144612e-06
    -3.08326846e-16
    -1.02274744e-05
    -2.58133139e-05
    3.64613403e-05
    -5.68403896e-15
    0.000117728866
    0.000457519087
    7.84043557e-05
    9.6319148e-15
    0.000736579093
    -2.23552287e-05
    0.000352537183
    4.45362986e-14
    -9.40092125e-06
    2.36328265e-16
    -3.95423231e-06
    1.30119463e-16
    -3.52600235e-06
    4.20474389e-06
    3.25102527e-05
    0.000162383229
    0.000556136101
    0.00132015045
    0.000445283421
    0.00171683946
    -1.89156496e-06
    8.98838608e-05
    1.29848914e-15
    0.000298188398
    7.4092188e-05
    0.00048897352
    2.398091e-15
    -0.000195025193
    4.84281794e-05
    -0.000271468334
    1.10321528e-15
    0.00603066643
    -0.00026579651
    0.00143242448
    2.99706155e-14
    0.000623466254
    9.87739466e-05
    0.000365956548
    3.24349428e-14
    3.53802225e-05
    7.68219333e-16
    -2.23058931e-05
    1.4475997e-17
    -0.00028332235
    2.5759919e-05
    9.19219232e-05
    -0.000179074294
    0.000268099097
    -3.70251627e-05
    7.23988925e-05
    5.0439827e-16
Sym=X
Ene=0.928674
Spin=Alpha
Occup=1
    -2.01068644e-07
    -1.54626976e-06
    -7.78326216e-06
    -2.64718152e-05
    -6.60980493e-05
    -4.49336269e-05
    -7.2723675e-05
    1.55165738e-05
    -7.89259031e-06
    4.61597417e-16
    5.12571888e-05
    -7.87852516e-05
    2.50345427e-05
    2.37586562e-15
    -0.000323467916
    8.79588827e-05
    -0.000143222927
    -1.19616877e-16
    0.00323544681
    0.000493222585
    0.00127912996
    1.37417334e-14
    0.000311260087
    -0.000212473899
    7.91347586e-05
    4.94790278e-14
    -5.59028806e-05
    5.30289525e-16
    1.61982164e-05
    1.66436057e-17
    -4.26781398e-07
    3.27561599e-05
    1.22685487e-05
    2.62764027e-05
    0.000106737132
    3.82884258e-05
    2.1854677e-05
    5.56754495e-16
    1.14671539e-05
    4.94621738e-06
    -2.27462924e-05
    0.000866658901
    -8.29494182e-06
    1.04943801e-05
    -1.99733672e-16
    3.06830838e-05
    4.70213083e-05
    -0.000105627867
    -4.84002577e-05
    -6.122416e-06
    -4.77765648e-05
    7.07008064e-16
    0.0011095693
    0.00858970201
    0.0428506309
    0.147114541
    0.347565397
    0.126418237
    0.465482385
    0.000643625729
    -0.000449464714
    1.92940455e-15
    0.00162765779
    -0.000736256989
    0.000482695149
    -3.67339667e-16
    0.00142890932
    0.000374903442
    -0.000206412354
    9.21368601e-15
    -0.000414141686
    -0.000717041964
    0.000473211686
    -1.99538474e-14
    -0.000733294904
    -1.94765045e-05
    0.000106910275
    -3.49134164e-14
    -0.000277842787
    -3.95618406e-16
    -0.000241987945
    3.27496512e-16
    0.00015825041
    -3.82471847e-07
    -2.81429991e-06
    -1.46735395e-05
    -4.71489586e-05
    -0.000138852883
    -0.000181286381
    -0.000202309842
    0.000211771768
    -0.000128239137
    4.25253972e-16
    0.000595196539
    0.000535199031
    -0.000320754239
    1.06378248e-15
    -0.000256759845
    -0.000239885441
    0.000137786055
    -7.34616632e-16
    0.000148464551
    0.0002845961
    -0.000152699413
    6.10838142e-16
    -0.000895011002
    -0.000144676585
    0.000109834133
    2.026635e-14
    -0.000239554527
    9.75330688e-17
    -0.000116367657
    5.24630693e-16
    0.000126480245
    -3.1723146e-07
    -2.4376069e-06
    -1.22880074e-05
    -4.16979475e-05
    -0.000103801826
    -6.22201714e-05
    -0.000118083905
    1.79310917e-05
    -2.77824992e-06
    2.18162165e-15
    4.44411243e-05
    -5.22393971e-05
    9.3752194e-06
    5.14816958e-15
    5.78130501e-05
    0.00038886401
    0.000130353763
    1.3645799e-15
    0.00333873992
    -0.000433480391
    -0.000850277219
    4.53106051e-14
    0.000588389667
    -0.000130869567
    -0.00012513464
    1.25459289e-14
    -9.76611361e-06
    2.24158555e-16
    4.56400532e-06
    2.43343096e-16
    3.87242663e-05
    -1.6650135e-09
    9.02516873e-10
    -9.40578252e-08
    4.8725421e-08
    -3.41317501e-06
    -1.3217411e-05
    7.08843188e-06
    1.48273083e-06
    8.737315e-07
    1.84098365e-15
    3.47119523e-05
    -2.17774363e-05
    -1.60989129e-06
    2.10226038e-15
    -0.000135269259
    6.33236099e-05
    5.36336135e-05
    6.66287415e-15
    -0.000643018853
    0.000218897368
    0.000110896795
    -5.75334204e-15
    -7.19162041e-05
    3.14251545e-05
    0.000112799697
    -1.43771473e-14
    -2.88778522e-06
    -3.9090605e-16
    5.56837728e-07
    -5.38928097e-16
    5.42054784e-06
    -3.05365348e-07
    -2.19099412e-06
    -1.18121214e-05
    -3.64675816e-05
    -0.000124320396
    -0.000225444411
    -8.83718032e-05
    -7.35564372e-05
    -4.39687069e-05
    1.95597024e-15
    0.000547821815
    -0.000626471508
    -0.000292756774
    9.20581394e-16
    -7.69065297e-05
    0.00019166351
    -1.60830718e-05
    7.90276432e-15
    -0.000377030314
    0.000481664813
    0.000262647198
    -1.53071943e-14
    1.25397856e-05
    -0.000100667781
    2.66475531e-05
    6.36307397e-15
    0.00022896375
    -7.92620569e-18
    -9.85999637e-05
    1.87139513e-16
    0.000207361368
    -2.97580319e-07
    -2.1263553e-06
    -1.1532489e-05
    -3.5365837e-05
    -0.000122957332
    -0.000227653212
    -8.15186815e-05
    7.13685597e-06
    8.12098756e-05
    3.95556999e-16
    0.000548273269
    -3.41903048e-05
    0.000704038479
    2.49945054e-15
    -7.07200156e-05
    6.0508708e-05
    -0.000169451149
    -2.78902618e-15
    -0.000439464101
    9.83719291e-05
    -0.000234356785
    5.98076406e-15
    8.87002047e-05
    -0.000141444994
    0.000302777975
    -3.59084892e-14
    -2.71244717e-05
    7.83555489e-18
    -0.000101181244
    3.28474795e-16
    -0.000316885149
    -4.60022092e-08
    -3.29240218e-07