[Molden Format]
[Atoms] (Angs)
  C      1    6     -0.00714236     -1.70213747     -0.00000000
  H      2    1     -2.06882847     -1.44022412      0.00000000
  H      3    1     -0.12337987     -2.77567521      0.00000000
  H      4    1      0.04651892      1.98813947     -0.00000000
  C      5    6     -1.21953563      0.40211669      0.00000000
  O      6    8     -2.25921553      1.03043814      0.00000000
  C      7    6      1.28797806      0.34644937     -0.00000000
  O      8    8      2.31273661      1.00537216     -0.00000000
  N      9    7      0.03446295      0.97739857     -0.00000000
  N     10    7     -1.17287765     -0.98229824      0.00000000
  C     11    6      1.20107039     -1.10433419     -0.00000000
  H     12    1      2.11220096     -1.67699125     -0.00000000
[GTO]
1    0
S    1    1.000000
   4.56324000E+03    1.96665000E-03 
S    1    1.000000
   6.82024000E+02    1.52306000E-02 
S    1    1.000000
   1.54973000E+02    7.61269000E-02 
S    1    1.000000
   4.44553000E+01    2.60801000E-01 
S    1    1.000000
   1.30290000E+01    6.16462000E-01 
S    1    1.000000
   1.82773000E+00    2.21006000E-01 
SP   3    1.000000
   2.09642000E+01    1.14660000E-01   4.02487000E-02 
   4.80331000E+00    9.19999000E-01   2.37594000E-01 
   1.45933000E+00   -3.03068000E-03   8.15854000E-01 
SP   1    1.000000
   4.83456000E-01    1.00000000E+00   1.00000000E+00 
SP   1    1.000000
   1.45585000E-01    1.00000000E+00   1.00000000E+00 
SP   1    1.000000
   4.38000000E-02    1.00000000E+00   1.00000000E+00 
SP   1    1.000000
   1.31927711E-02    1.00000000E+00   1.00000000E+00 
D    1    1.000000
   6.26000000E-01    1.00000000E+00 

2    0
S    3    1.000000
   3.38650000E+01    2.54938000E-02 
   5.09479000E+00    1.90373000E-01 
   1.15879000E+00    8.52161000E-01 
S    1    1.000000
   3.25840000E-01    1.00000000E+00 
S    1    1.000000
   1.02741000E-01    1.00000000E+00 
S    1    1.000000
   3.60000000E-02    1.00000000E+00 
P    1    1.000000
   7.50000000E-01    1.00000000E+00 

3    0
S    3    1.000000
   3.38650000E+01    2.54938000E-02 
   5.09479000E+00    1.90373000E-01 
   1.15879000E+00    8.52161000E-01 
S    1    1.000000
   3.25840000E-01    1.00000000E+00 
S    1    1.000000
   1.02741000E-01    1.00000000E+00 
S    1    1.000000
   3.60000000E-02    1.00000000E+00 
P    1    1.000000
   7.50000000E-01    1.00000000E+00 

4    0
S    3    1.000000
   3.38650000E+01    2.54938000E-02 
   5.09479000E+00    1.90373000E-01 
   1.15879000E+00    8.52161000E-01 
S    1    1.000000
   3.25840000E-01    1.00000000E+00 
S    1    1.000000
   1.02741000E-01    1.00000000E+00 
S    1    1.000000
   3.60000000E-02    1.00000000E+00 
P    1    1.000000
   7.50000000E-01    1.00000000E+00 

5    0
S    1    1.000000
   4.56324000E+03    1.96665000E-03 
S    1    1.000000
   6.82024000E+02    1.52306000E-02 
S    1    1.000000
   1.54973000E+02    7.61269000E-02 
S    1    1.000000
   4.44553000E+01    2.60801000E-01 
S    1    1.000000
   1.30290000E+01    6.16462000E-01 
S    1    1.000000
   1.82773000E+00    2.21006000E-01 
SP   3    1.000000
   2.09642000E+01    1.14660000E-01   4.02487000E-02 
   4.80331000E+00    9.19999000E-01   2.37594000E-01 
   1.45933000E+00   -3.03068000E-03   8.15854000E-01 
SP   1    1.000000
   4.83456000E-01    1.00000000E+00   1.00000000E+00 
SP   1    1.000000
   1.45585000E-01    1.00000000E+00   1.00000000E+00 
SP   1    1.000000
   4.38000000E-02    1.00000000E+00   1.00000000E+00 
SP   1    1.000000
   1.31927711E-02    1.00000000E+00   1.00000000E+00 
D    1    1.000000
   6.26000000E-01    1.00000000E+00 

6    0
S    1    1.000000
   8.58850000E+03    1.89515000E-03 
S    1    1.000000
   1.29723000E+03    1.43859000E-02 
S    1    1.000000
   2.99296000E+02    7.07320000E-02 
S    1    1.000000
   8.73771000E+01    2.40001000E-01 
S    1    1.000000
   2.56789000E+01    5.94797000E-01 
S    1    1.000000
   3.74004000E+00    2.80802000E-01 
SP   3    1.000000
   4.21175000E+01    1.13889000E-01   3.65114000E-02 
   9.62837000E+00    9.20811000E-01   2.37153000E-01 
   2.85332000E+00   -3.27447000E-03   8.19702000E-01 
SP   1    1.000000
   9.05661000E-01    1.00000000E+00   1.00000000E+00 
SP   1    1.000000
   2.55611000E-01    1.00000000E+00   1.00000000E+00 
SP   1    1.000000
   8.45000000E-02    1.00000000E+00   1.00000000E+00 
SP   1    1.000000
   2.54518072E-02    1.00000000E+00   1.00000000E+00 
D    1    1.000000
   1.29200000E+00    1.00000000E+00 

7    0
S    1    1.000000
   4.56324000E+03    1.96665000E-03 
S    1    1.000000
   6.82024000E+02    1.52306000E-02 
S    1    1.000000
   1.54973000E+02    7.61269000E-02 
S    1    1.000000
   4.44553000E+01    2.60801000E-01 
S    1    1.000000
   1.30290000E+01    6.16462000E-01 
S    1    1.000000
   1.82773000E+00    2.21006000E-01 
SP   3    1.000000
   2.09642000E+01    1.14660000E-01   4.02487000E-02 
   4.80331000E+00    9.19999000E-01   2.37594000E-01 
   1.45933000E+00   -3.03068000E-03   8.15854000E-01 
SP   1    1.000000
   4.83456000E-01    1.00000000E+00   1.00000000E+00 
SP   1    1.000000
   1.45585000E-01    1.00000000E+00   1.00000000E+00 
SP   1    1.000000
   4.38000000E-02    1.00000000E+00   1.00000000E+00 
SP   1    1.000000
   1.31927711E-02    1.00000000E+00   1.00000000E+00 
D    1    1.000000
   6.26000000E-01    1.00000000E+00 

8    0
S    1    1.000000
   8.58850000E+03    1.89515000E-03 
S    1    1.000000
   1.29723000E+03    1.43859000E-02 
S    1    1.000000
   2.99296000E+02    7.07320000E-02 
S    1    1.000000
   8.73771000E+01    2.40001000E-01 
S    1    1.000000
   2.56789000E+01    5.94797000E-01 
S    1    1.000000
   3.74004000E+00    2.80802000E-01 
SP   3    1.000000
   4.21175000E+01    1.13889000E-01   3.65114000E-02 
   9.62837000E+00    9.20811000E-01   2.37153000E-01 
   2.85332000E+00   -3.27447000E-03   8.19702000E-01 
SP   1    1.000000
   9.05661000E-01    1.00000000E+00   1.00000000E+00 
SP   1    1.000000
   2.55611000E-01    1.00000000E+00   1.00000000E+00 
SP   1    1.000000
   8.45000000E-02    1.00000000E+00   1.00000000E+00 
SP   1    1.000000
   2.54518072E-02    1.00000000E+00   1.00000000E+00 
D    1    1.000000
   1.29200000E+00    1.00000000E+00 

9    0
S    1    1.000000
   6.29348000E+03    1.96979000E-03 
S    1    1.000000
   9.49044000E+02    1.49613000E-02 
S    1    1.000000
   2.18776000E+02    7.35006000E-02 
S    1    1.000000
   6.36916000E+01    2.48937000E-01 
S    1    1.000000
   1.88282000E+01    6.02460000E-01 
S    1    1.000000
   2.72023000E+00    2.56202000E-01 
SP   3    1.000000
   3.06331000E+01    1.11906000E-01   3.83119000E-02 
   7.02614000E+00    9.21666000E-01   2.37403000E-01 
   2.11205000E+00   -2.56919000E-03   8.17592000E-01 
SP   1    1.000000
   6.84009000E-01    1.00000000E+00   1.00000000E+00 
SP   1    1.000000
   2.00878000E-01    1.00000000E+00   1.00000000E+00 
SP   1    1.000000
   6.39000000E-02    1.00000000E+00   1.00000000E+00 
SP   1    1.000000
   1.92469880E-02    1.00000000E+00   1.00000000E+00 
D    1    1.000000
   9.13000000E-01    1.00000000E+00 

10    0
S    1    1.000000
   6.29348000E+03    1.96979000E-03 
S    1    1.000000
   9.49044000E+02    1.49613000E-02 
S    1    1.000000
   2.18776000E+02    7.35006000E-02 
S    1    1.000000
   6.36916000E+01    2.48937000E-01 
S    1    1.000000
   1.88282000E+01    6.02460000E-01 
S    1    1.000000
   2.72023000E+00    2.56202000E-01 
SP   3    1.000000
   3.06331000E+01    1.11906000E-01   3.83119000E-02 
   7.02614000E+00    9.21666000E-01   2.37403000E-01 
   2.11205000E+00   -2.56919000E-03   8.17592000E-01 
SP   1    1.000000
   6.84009000E-01    1.00000000E+00   1.00000000E+00 
SP   1    1.000000
   2.00878000E-01    1.00000000E+00   1.00000000E+00 
SP   1    1.000000
   6.39000000E-02    1.00000000E+00   1.00000000E+00 
SP   1    1.000000
   1.92469880E-02    1.00000000E+00   1.00000000E+00 
D    1    1.000000
   9.13000000E-01    1.00000000E+00 

11    0
S    1    1.000000
   4.56324000E+03    1.96665000E-03 
S    1    1.000000
   6.82024000E+02    1.52306000E-02 
S    1    1.000000
   1.54973000E+02    7.61269000E-02 
S    1    1.000000
   4.44553000E+01    2.60801000E-01 
S    1    1.000000
   1.30290000E+01    6.16462000E-01 
S    1    1.000000
   1.82773000E+00    2.21006000E-01 
SP   3    1.000000
   2.09642000E+01    1.14660000E-01   4.02487000E-02 
   4.80331000E+00    9.19999000E-01   2.37594000E-01 
   1.45933000E+00   -3.03068000E-03   8.15854000E-01 
SP   1    1.000000
   4.83456000E-01    1.00000000E+00   1.00000000E+00 
SP   1    1.000000
   1.45585000E-01    1.00000000E+00   1.00000000E+00 
SP   1    1.000000
   4.38000000E-02    1.00000000E+00   1.00000000E+00 
SP   1    1.000000
   1.31927711E-02    1.00000000E+00   1.00000000E+00 
D    1    1.000000
   6.26000000E-01    1.00000000E+00 

12    0
S    3    1.000000
   3.38650000E+01    2.54938000E-02 
   5.09479000E+00    1.90373000E-01 
   1.15879000E+00    8.52161000E-01 
S    1    1.000000
   3.25840000E-01    1.00000000E+00 
S    1    1.000000
   1.02741000E-01    1.00000000E+00 
S    1    1.000000
   3.60000000E-02    1.00000000E+00 
P    1    1.000000
   7.50000000E-01    1.00000000E+00 

[MO]
Sym=X
Ene=0.032952
Spin=Alpha
Occup=1
1    1.95361015e-05
2    9.7523905e-05
3    0.000334580331
4    0.000793936293
5    0.000310258485
6    0.00104739146
7    -1.78644905e-05
8    8.57643577e-06
9    -4.62778129e-16
10    -4.73696465e-05
11    8.10243453e-05
12    -2.48738895e-05
13    -2.37332471e-15
14    0.000326202552
15    -8.8608231e-05
16    0.000145037506
17    1.0454115e-16
18    -0.00323595602
19    -0.000494816023
20    -0.00127908104
21    -1.35876471e-14
22    -0.000311388139
23    0.000212780847
24    -7.96632025e-05
25    -4.96983081e-14
26    5.66655461e-05
27    -5.30351446e-16
28    -1.67090641e-05
29    -1.65150853e-17
30    7.31726908e-07
31    -3.25127968e-05
32    -1.21302109e-05
33    -2.58162639e-05
34    -0.00010642986
35    -3.81104096e-05
36    -2.17929615e-05
37    -5.57493312e-16
38    -1.06565633e-05
39    -3.78484992e-06
40    2.30577261e-05
41    -0.000866749202
42    8.39889415e-06
43    -9.77394385e-06
44    1.99918675e-16
45    -3.05546662e-05
46    -4.70658175e-05
47    0.000106198667
48    4.86090623e-05
49    6.12035835e-06
50    4.77151044e-05
51    -7.05789502e-16
52    -0.00110956532
53    -0.00858967103
54    -0.0428504773
55    -0.147114011
56    -0.347564176
57    -0.126417935
58    -0.465480646
59    -0.000643627416
60    0.000449468836
61    -1.925631e-15
62    -0.00162719935
63    0.000736559305
64    -0.000483118168
65    3.67655238e-16
66    -0.00142854379
67    -0.000376796486
68    0.000207567857
69    -9.20646387e-15
70    0.000415875068
71    0.000715092862
72    -0.000471521384
73    2.01341028e-14
74    0.000732685971
75    1.94027254e-05
76    -0.0001070082
77    3.50848471e-14
78    0.000277890157
79    3.9643903e-16
80    0.000242010261
81    -3.28488438e-16
82    -0.000158422753
83    1.03778685e-07
84    6.94329935e-07
85    4.27810102e-06
86    1.17723451e-05
87    5.12731049e-05
88    0.000139684843
89    7.65326713e-05
90    -0.000212214219
91    0.000128514371
92    -4.22687448e-16
93    -0.00059631586
94    -0.000534896726
95    0.000320554269
96    -1.06104462e-15
97    0.000256195539
98    0.000239375468
99    -0.000137481482
100    7.44826246e-16
101    -0.000152304406
102    -0.000285203704
103    0.000153081926
104    -6.20400901e-16
105    0.000889259813
106    0.000143698461
107    -0.000109313184
108    -2.0344146e-14
109    0.000239517664
110    -9.83002218e-17
111    0.000116385463
112    -5.23399511e-16
113    -0.00012647529
114    1.25672601e-06
115    9.7108197e-06
116    4.85700431e-05
117    0.00016626416
118    0.000398056527
119    0.000169118705
120    0.000512292552
121    -1.85531868e-05
122    3.24381252e-06
123    -2.18126589e-15
124    -4.26621899e-05
125    5.27768622e-05
126    -9.95798496e-06
127    -5.14530483e-15
128    -5.60898842e-05
129    -0.000389453498
130    -0.000130104121
131    -1.37520689e-15
132    -0.0033405371
133    0.000433812531
134    0.000852868139
135    -4.51293581e-14
136    -0.000588457127
137    0.00013070876
138    0.000125218537
139    -1.26537526e-14
140    1.0106993e-05
141    -2.24064757e-16
142    -4.81564719e-06
143    -2.43749488e-16
144    -3.89248914e-05
145    1.86524574e-08
146    1.28423994e-07
147    7.27298067e-07
148    2.10927696e-06
149    8.72988231e-06
150    1.56190586e-05
151    5.70014233e-07
152    -1.67404313e-06
153    -9.95190134e-07
154    -1.83903195e-15
155    -3.40748938e-05
156    2.12775361e-05
157    1.24289539e-06
158    -2.10826792e-15
159    0.000135241259
160    -6.3106506e-05
161    -5.35358692e-05
162    -6.64892052e-15
163    0.000642320974
164    -0.000218906353
165    -0.000111075357
166    5.72135235e-15
167    7.04021094e-05
168    -3.09065766e-05
169    -0.00011280528
170    1.43736643e-14
171    3.12099706e-06
172    3.90929762e-16
173    -6.60243638e-07
174    5.38561187e-16
175    -5.33858159e-06
176    6.09124326e-07
177    4.50408222e-06
178    2.31436712e-05
179    7.49381881e-05
180    0.000217265285
181    0.000265048256
182    0.000217915356
183    7.3548091e-05
184    4.39242281e-05
185    -1.95230277e-15
186    -0.000545955352
187    0.000627078481
188    0.000292389234
189    -9.2520284e-16
190    7.69175911e-05
191    -0.000191961063
192    1.60159571e-05
193    -7.86810138e-15
194    0.000376456288
195    -0.000482186894
196    -0.000263801056
197    1.51868006e-14
198    -9.92884581e-06
199    9.98122225e-05
200    -2.68138861e-05
201    -6.47741769e-15
202    -0.000229175955
203    7.33735718e-18
204    9.84979613e-05
205    -1.87500381e-16
206    -0.000207164222
207    1.05917057e-06
208    7.92551806e-06
209    3.99437397e-05
210    0.000131815508
211    0.000356043305
212    0.000327170625
213    0.000406136476
214    -6.88515769e-06
215    -8.12958073e-05
216    -3.90338187e-16
217    -0.000543776806
218    3.57167914e-05
219    -0.000704935408
220    -2.513172e-15
221    7.02522439e-05
222    -6.0550743e-05
223    0.00016964448
224    2.83036055e-15
225    0.000438468368
226    -9.82872974e-05
227    0.000235530423
228    -6.11295147e-15
229    -8.76795034e-05
230    0.000140875505
231    -0.000301913319
232    3.58990876e-14
233    2.64381781e-05
234    -7.78795254e-18
235    0.000100945277
236    -3.28137878e-16
237    0.000317274791
238    2.90726933e-07
239    2.22352506e-06
240    1.1287576e-05
241    3.79980794e-05
242    9.70535822e-05
243    6.58897077e-05
244    0.000103894994
245    -8.84640052e-06
246    2.87042057e-06
247    -1.87280766e-15
248    -7.30870769e-05
249    6.76986143e-05
250    -1.82440203e-05
251    -2.17119984e-15
252    -0.000128272999
253    0.000117537916
254    -5.82909965e-05
255    -7.18093218e-15
256    0.00538660486
257    -0.000899956467
258    0.000563116034
259    2.95880508e-14
260    7.88634358e-05
261    -7.77552774e-05
262    3.91453789e-05
263    4.30688798e-14
264    -2.40083847e-05
265    -5.69342842e-16
266    -1.65106618e-06
267    6.1435028e-17
268    -2.31906291e-06
269    -4.7751583e-06
270    -5.21267969e-05
271    -1.12244303e-05
272    0.000106222142
273    1.35197233e-05
274    -7.2180433e-06
275    -7.71566066e-16
[5D]