[Molden Format]
[Atoms] (Angs)
  C      1    6     -0.00714236     -1.70213747     -0.00000000
  H      2    1     -2.06882847     -1.44022412      0.00000000
  H      3    1     -0.12337987     -2.77567521      0.00000000
  H      4    1      0.04651892      1.98813947     -0.00000000
  C      5    6     -1.21953563      0.40211669      0.00000000
  O      6    8     -2.25921553      1.03043814      0.00000000
  C      7    6      1.28797806      0.34644937     -0.00000000
  O      8    8      2.31273661      1.00537216     -0.00000000
  N      9    7      0.03446295      0.97739857     -0.00000000
  N     10    7     -1.17287765     -0.98229824      0.00000000
  C     11    6      1.20107039     -1.10433419     -0.00000000
  H     12    1      2.11220096     -1.67699125     -0.00000000
[GTO]
1    0
S    1    1.000000
   4.56324000E+03    1.96665000E-03 
S    1    1.000000
   6.82024000E+02    1.52306000E-02 
S    1    1.000000
   1.54973000E+02    7.61269000E-02 
S    1    1.000000
   4.44553000E+01    2.60801000E-01 
S    1    1.000000
   1.30290000E+01    6.16462000E-01 
S    1    1.000000
   1.82773000E+00    2.21006000E-01 
SP   3    1.000000
   2.09642000E+01    1.14660000E-01   4.02487000E-02 
   4.80331000E+00    9.19999000E-01   2.37594000E-01 
   1.45933000E+00   -3.03068000E-03   8.15854000E-01 
SP   1    1.000000
   4.83456000E-01    1.00000000E+00   1.00000000E+00 
SP   1    1.000000
   1.45585000E-01    1.00000000E+00   1.00000000E+00 
SP   1    1.000000
   4.38000000E-02    1.00000000E+00   1.00000000E+00 
SP   1    1.000000
   1.31927711E-02    1.00000000E+00   1.00000000E+00 
D    1    1.000000
   6.26000000E-01    1.00000000E+00 

2    0
S    3    1.000000
   3.38650000E+01    2.54938000E-02 
   5.09479000E+00    1.90373000E-01 
   1.15879000E+00    8.52161000E-01 
S    1    1.000000
   3.25840000E-01    1.00000000E+00 
S    1    1.000000
   1.02741000E-01    1.00000000E+00 
S    1    1.000000
   3.60000000E-02    1.00000000E+00 
P    1    1.000000
   7.50000000E-01    1.00000000E+00 

3    0
S    3    1.000000
   3.38650000E+01    2.54938000E-02 
   5.09479000E+00    1.90373000E-01 
   1.15879000E+00    8.52161000E-01 
S    1    1.000000
   3.25840000E-01    1.00000000E+00 
S    1    1.000000
   1.02741000E-01    1.00000000E+00 
S    1    1.000000
   3.60000000E-02    1.00000000E+00 
P    1    1.000000
   7.50000000E-01    1.00000000E+00 

4    0
S    3    1.000000
   3.38650000E+01    2.54938000E-02 
   5.09479000E+00    1.90373000E-01 
   1.15879000E+00    8.52161000E-01 
S    1    1.000000
   3.25840000E-01    1.00000000E+00 
S    1    1.000000
   1.02741000E-01    1.00000000E+00 
S    1    1.000000
   3.60000000E-02    1.00000000E+00 
P    1    1.000000
   7.50000000E-01    1.00000000E+00 

5    0
S    1    1.000000
   4.56324000E+03    1.96665000E-03 
S    1    1.000000
   6.82024000E+02    1.52306000E-02 
S    1    1.000000
   1.54973000E+02    7.61269000E-02 
S    1    1.000000
   4.44553000E+01    2.60801000E-01 
S    1    1.000000
   1.30290000E+01    6.16462000E-01 
S    1    1.000000
   1.82773000E+00    2.21006000E-01 
SP   3    1.000000
   2.09642000E+01    1.14660000E-01   4.02487000E-02 
   4.80331000E+00    9.19999000E-01   2.37594000E-01 
   1.45933000E+00   -3.03068000E-03   8.15854000E-01 
SP   1    1.000000
   4.83456000E-01    1.00000000E+00   1.00000000E+00 
SP   1    1.000000
   1.45585000E-01    1.00000000E+00   1.00000000E+00 
SP   1    1.000000
   4.38000000E-02    1.00000000E+00   1.00000000E+00 
SP   1    1.000000
   1.31927711E-02    1.00000000E+00   1.00000000E+00 
D    1    1.000000
   6.26000000E-01    1.00000000E+00 

6    0
S    1    1.000000
   8.58850000E+03    1.89515000E-03 
S    1    1.000000
   1.29723000E+03    1.43859000E-02 
S    1    1.000000
   2.99296000E+02    7.07320000E-02 
S    1    1.000000
   8.73771000E+01    2.40001000E-01 
S    1    1.000000
   2.56789000E+01    5.94797000E-01 
S    1    1.000000
   3.74004000E+00    2.80802000E-01 
SP   3    1.000000
   4.21175000E+01    1.13889000E-01   3.65114000E-02 
   9.62837000E+00    9.20811000E-01   2.37153000E-01 
   2.85332000E+00   -3.27447000E-03   8.19702000E-01 
SP   1    1.000000
   9.05661000E-01    1.00000000E+00   1.00000000E+00 
SP   1    1.000000
   2.55611000E-01    1.00000000E+00   1.00000000E+00 
SP   1    1.000000
   8.45000000E-02    1.00000000E+00   1.00000000E+00 
SP   1    1.000000
   2.54518072E-02    1.00000000E+00   1.00000000E+00 
D    1    1.000000
   1.29200000E+00    1.00000000E+00 

7    0
S    1    1.000000
   4.56324000E+03    1.96665000E-03 
S    1    1.000000
   6.82024000E+02    1.52306000E-02 
S    1    1.000000
   1.54973000E+02    7.61269000E-02 
S    1    1.000000
   4.44553000E+01    2.60801000E-01 
S    1    1.000000
   1.30290000E+01    6.16462000E-01 
S    1    1.000000
   1.82773000E+00    2.21006000E-01 
SP   3    1.000000
   2.09642000E+01    1.14660000E-01   4.02487000E-02 
   4.80331000E+00    9.19999000E-01   2.37594000E-01 
   1.45933000E+00   -3.03068000E-03   8.15854000E-01 
SP   1    1.000000
   4.83456000E-01    1.00000000E+00   1.00000000E+00 
SP   1    1.000000
   1.45585000E-01    1.00000000E+00   1.00000000E+00 
SP   1    1.000000
   4.38000000E-02    1.00000000E+00   1.00000000E+00 
SP   1    1.000000
   1.31927711E-02    1.00000000E+00   1.00000000E+00 
D    1    1.000000
   6.26000000E-01    1.00000000E+00 

8    0
S    1    1.000000
   8.58850000E+03    1.89515000E-03 
S    1    1.000000
   1.29723000E+03    1.43859000E-02 
S    1    1.000000
   2.99296000E+02    7.07320000E-02 
S    1    1.000000
   8.73771000E+01    2.40001000E-01 
S    1    1.000000
   2.56789000E+01    5.94797000E-01 
S    1    1.000000
   3.74004000E+00    2.80802000E-01 
SP   3    1.000000
   4.21175000E+01    1.13889000E-01   3.65114000E-02 
   9.62837000E+00    9.20811000E-01   2.37153000E-01 
   2.85332000E+00   -3.27447000E-03   8.19702000E-01 
SP   1    1.000000
   9.05661000E-01    1.00000000E+00   1.00000000E+00 
SP   1    1.000000
   2.55611000E-01    1.00000000E+00   1.00000000E+00 
SP   1    1.000000
   8.45000000E-02    1.00000000E+00   1.00000000E+00 
SP   1    1.000000
   2.54518072E-02    1.00000000E+00   1.00000000E+00 
D    1    1.000000
   1.29200000E+00    1.00000000E+00 

9    0
S    1    1.000000
   6.29348000E+03    1.96979000E-03 
S    1    1.000000
   9.49044000E+02    1.49613000E-02 
S    1    1.000000
   2.18776000E+02    7.35006000E-02 
S    1    1.000000
   6.36916000E+01    2.48937000E-01 
S    1    1.000000
   1.88282000E+01    6.02460000E-01 
S    1    1.000000
   2.72023000E+00    2.56202000E-01 
SP   3    1.000000
   3.06331000E+01    1.11906000E-01   3.83119000E-02 
   7.02614000E+00    9.21666000E-01   2.37403000E-01 
   2.11205000E+00   -2.56919000E-03   8.17592000E-01 
SP   1    1.000000
   6.84009000E-01    1.00000000E+00   1.00000000E+00 
SP   1    1.000000
   2.00878000E-01    1.00000000E+00   1.00000000E+00 
SP   1    1.000000
   6.39000000E-02    1.00000000E+00   1.00000000E+00 
SP   1    1.000000
   1.92469880E-02    1.00000000E+00   1.00000000E+00 
D    1    1.000000
   9.13000000E-01    1.00000000E+00 

10    0
S    1    1.000000
   6.29348000E+03    1.96979000E-03 
S    1    1.000000
   9.49044000E+02    1.49613000E-02 
S    1    1.000000
   2.18776000E+02    7.35006000E-02 
S    1    1.000000
   6.36916000E+01    2.48937000E-01 
S    1    1.000000
   1.88282000E+01    6.02460000E-01 
S    1    1.000000
   2.72023000E+00    2.56202000E-01 
SP   3    1.000000
   3.06331000E+01    1.11906000E-01   3.83119000E-02 
   7.02614000E+00    9.21666000E-01   2.37403000E-01 
   2.11205000E+00   -2.56919000E-03   8.17592000E-01 
SP   1    1.000000
   6.84009000E-01    1.00000000E+00   1.00000000E+00 
SP   1    1.000000
   2.00878000E-01    1.00000000E+00   1.00000000E+00 
SP   1    1.000000
   6.39000000E-02    1.00000000E+00   1.00000000E+00 
SP   1    1.000000
   1.92469880E-02    1.00000000E+00   1.00000000E+00 
D    1    1.000000
   9.13000000E-01    1.00000000E+00 

11    0
S    1    1.000000
   4.56324000E+03    1.96665000E-03 
S    1    1.000000
   6.82024000E+02    1.52306000E-02 
S    1    1.000000
   1.54973000E+02    7.61269000E-02 
S    1    1.000000
   4.44553000E+01    2.60801000E-01 
S    1    1.000000
   1.30290000E+01    6.16462000E-01 
S    1    1.000000
   1.82773000E+00    2.21006000E-01 
SP   3    1.000000
   2.09642000E+01    1.14660000E-01   4.02487000E-02 
   4.80331000E+00    9.19999000E-01   2.37594000E-01 
   1.45933000E+00   -3.03068000E-03   8.15854000E-01 
SP   1    1.000000
   4.83456000E-01    1.00000000E+00   1.00000000E+00 
SP   1    1.000000
   1.45585000E-01    1.00000000E+00   1.00000000E+00 
SP   1    1.000000
   4.38000000E-02    1.00000000E+00   1.00000000E+00 
SP   1    1.000000
   1.31927711E-02    1.00000000E+00   1.00000000E+00 
D    1    1.000000
   6.26000000E-01    1.00000000E+00 

12    0
S    3    1.000000
   3.38650000E+01    2.54938000E-02 
   5.09479000E+00    1.90373000E-01 
   1.15879000E+00    8.52161000E-01 
S    1    1.000000
   3.25840000E-01    1.00000000E+00 
S    1    1.000000
   1.02741000E-01    1.00000000E+00 
S    1    1.000000
   3.60000000E-02    1.00000000E+00 
P    1    1.000000
   7.50000000E-01    1.00000000E+00 

[MO]
Sym=X
Ene=0.01599
Spin=Alpha
Occup=1
1    -0.000237743173
2    -0.00118566379
3    -0.00407197088
4    -0.00960754014
5    -0.00346016535
6    -0.0129123984
7    5.85408032e-05
8    1.15007115e-05
9    -8.17253704e-16
10    -0.000122615963
11    -0.000104683097
12    -7.60423075e-05
13    1.82963664e-15
14    -4.23764892e-05
15    8.0610778e-05
16    -0.000178655888
17    -4.60061891e-15
18    0.00157560678
19    3.80779079e-05
20    0.000518819697
21    3.10379389e-14
22    -3.04677284e-05
23    -0.000101617936
24    0.000195074843
25    4.98846573e-14
26    -6.21972164e-05
27    -6.68096286e-16
28    4.71637784e-06
29    -5.7776557e-16
30    1.063684e-06
31    -1.00416806e-05
32    4.17994301e-05
33    -0.000206276061
34    -0.000294930738
35    -8.20123082e-07
36    4.12323184e-06
37    7.39324505e-16
38    -7.78715371e-06
39    -9.675439e-05
40    -4.55841422e-07
41    -2.23023076e-05
42    -1.32708835e-05
43    -2.24012605e-05
44    -2.68682486e-16
45    -3.25734487e-05
46    -4.59076716e-05
47    -0.000137013997
48    0.000245208687
49    1.23793978e-05
50    3.97838496e-05
51    -4.26514162e-16
52    1.58945177e-05
53    0.000123019044
54    0.00061389157
55    0.00210684671
56    0.00498535922
57    0.00184803978
58    0.00664694054
59    2.67345858e-05
60    -5.10242235e-06
61    1.37417945e-15
62    -4.70309223e-05
63    -6.11059831e-05
64    6.01697284e-06
65    -2.82840588e-16
66    8.54794065e-06
67    0.000460265289
68    -0.000220634015
69    4.11718168e-15
70    -0.000594551124
71    0.000110224869
72    0.000245138918
73    2.6786217e-14
74    0.000454672702
75    0.000174273091
76    6.30226888e-05
77    1.10614546e-14
78    -8.20435555e-06
79    -4.78402707e-16
80    -4.93593278e-06
81    -8.43394733e-16
82    -3.93534068e-05
83    -1.12574326e-07
84    -8.68002952e-07
85    -4.17415591e-06
86    -1.45191788e-05
87    -3.28623741e-05
88    -6.00033851e-06
89    -5.87440478e-05
90    3.81195295e-06
91    -2.62838528e-06
92    5.61844668e-16
93    -2.88172322e-05
94    -1.16268325e-05
95    -2.81110116e-06
96    9.47636719e-16
97    0.000173521852
98    7.94995627e-05
99    -6.25322444e-05
100    3.54043772e-15
101    0.000749779942
102    0.000233356723
103    -6.05772532e-05
104    -3.36713468e-15
105    0.000224822372
106    -4.04709967e-05
107    -0.000199158651
108    1.21923209e-14
109    -8.40057061e-06
110    -6.79766393e-16
111    -2.97211704e-06
112    1.01643829e-16
113    -2.99742885e-06
114    -0.00110585545
115    -0.00856096711
116    -0.0427070575
117    -0.146621006
118    -0.346394993
119    -0.126034498
120    -0.463930067
121    0.000736956295
122    -0.000496941994
123    -2.39641657e-15
124    -0.00158008556
125    -0.000805732785
126    0.000197122706
127    -4.97449584e-15
128    -0.00157450717
129    0.000338829809
130    -0.000337424022
131    -4.94199296e-15
132    0.0022472543
133    -0.000105076569
134    -0.00234464245
135    3.54268259e-14
136    0.000242523831
137    0.000284701994
138    -4.45194697e-05
139    -5.21792603e-16
140    -0.000330747026
141    -2.28550563e-16
142    0.000248338866
143    -1.83973645e-16
144    2.47121092e-05
145    6.21520508e-07
146    4.6274977e-06
147    2.36014579e-05
148    7.74110469e-05
149    0.0002155783
150    0.000227993764
151    0.000305243746
152    0.000204748041
153    0.000138271008
154    -2.00807036e-15
155    -0.000632572861
156    0.00055328737
157    0.000367957634
158    -2.00436551e-15
159    0.000244172931
160    -0.000217814467
161    -0.000114006695
162    -2.88011972e-15
163    0.000294798611
164    8.2766484e-05
165    0.000193673191
166    -1.27691704e-14
167    0.00206479405
168    -0.000562779474
169    -5.3690031e-05
170    6.85099231e-15
171    -0.000253761551
172    2.8292726e-16
173    0.000114101711
174    4.51245938e-16
175    -0.000115289644
176    3.35937194e-06
177    2.53988722e-05
178    0.00012584445
179    0.000422258572
180    0.00106825694
181    0.00066112174
182    0.00136124518
183    -4.80942417e-05
184    3.84021031e-05
185    1.28399895e-16
186    -0.000546393101
187    -0.000693937583
188    0.000321746387
189    -4.98366998e-15
190    -3.23571126e-05
191    0.000149997054
192    0.00013870833
193    5.94152653e-15
194    0.00129650184
195    0.000994478681
196    1.0629614e-05
197    -2.95145331e-14
198    -0.000393255506
199    -0.000597647835
200    -0.000103587137
201    -1.46275202e-14
202    0.000267982181
203    1.13498607e-16
204    0.00012178853
205    -8.30928872e-16
206    -0.000211250761
207    6.81485599e-07
208    5.15147582e-06
209    2.55114263e-05
210    8.5562206e-05
211    0.000216326803
212    0.000125807685
213    0.000268854785
214    3.31587895e-06
215    4.52324562e-06
216    1.842304e-15
217    -7.30547541e-05
218    -4.1187242e-05
219    1.02473049e-05
220    3.25140663e-16
221    3.49968995e-05
222    3.91534045e-05
223    -2.64594313e-05
224    6.28557163e-15
225    -9.34770318e-06
226    -0.000409155453
227    -7.10566139e-05
228    -1.18595956e-14
229    -0.000672221889
230    3.1837533e-05
231    -0.000329868589
232    -4.50957552e-14
233    1.59926098e-05
234    -2.35557066e-16
235    5.16029753e-06
236    -1.48415171e-16
237    -3.09354386e-06
238    8.36009407e-05
239    0.000647263155
240    0.00322849876
241    0.0110865485
242    0.0261810163
243    0.00960988121
244    0.035101986
245    -8.21947737e-06
246    -6.92864478e-05
247    -1.32781522e-15
248    -0.000156086682
249    -7.15335344e-05
250    -0.000495613671
251    -2.78002965e-15
252    0.000364783506
253    -0.000128734876
254    0.000326333179
255    -8.83421732e-16
256    -0.00575385134
257    0.000198849156
258    -0.00133825443
259    -3.40010991e-14
260    -0.00059395669
261    -8.54332411e-05
262    -0.00034555684
263    -2.84623057e-14
264    -3.41281158e-05
265    -8.20459344e-16
266    1.32863028e-05
267    -1.74954113e-17
268    0.000284826251
269    3.67273398e-06
270    -5.5809588e-05
271    0.000210750694
272    -0.000223960956
273    1.79489347e-05
274    -5.94785925e-05
275    -5.55701355e-16
[5D]