[Molden Format]
[Atoms] (Angs)
  C      1    6     -0.00714236     -1.70213747     -0.00000000
  H      2    1     -2.06882847     -1.44022412      0.00000000
  H      3    1     -0.12337987     -2.77567521      0.00000000
  H      4    1      0.04651892      1.98813947     -0.00000000
  C      5    6     -1.21953563      0.40211669      0.00000000
  O      6    8     -2.25921553      1.03043814      0.00000000
  C      7    6      1.28797806      0.34644937     -0.00000000
  O      8    8      2.31273661      1.00537216     -0.00000000
  N      9    7      0.03446295      0.97739857     -0.00000000
  N     10    7     -1.17287765     -0.98229824      0.00000000
  C     11    6      1.20107039     -1.10433419     -0.00000000
  H     12    1      2.11220096     -1.67699125     -0.00000000
[GTO]
1    0
S    1    1.000000
   4.56324000E+03    1.96665000E-03 
S    1    1.000000
   6.82024000E+02    1.52306000E-02 
S    1    1.000000
   1.54973000E+02    7.61269000E-02 
S    1    1.000000
   4.44553000E+01    2.60801000E-01 
S    1    1.000000
   1.30290000E+01    6.16462000E-01 
S    1    1.000000
   1.82773000E+00    2.21006000E-01 
SP   3    1.000000
   2.09642000E+01    1.14660000E-01   4.02487000E-02 
   4.80331000E+00    9.19999000E-01   2.37594000E-01 
   1.45933000E+00   -3.03068000E-03   8.15854000E-01 
SP   1    1.000000
   4.83456000E-01    1.00000000E+00   1.00000000E+00 
SP   1    1.000000
   1.45585000E-01    1.00000000E+00   1.00000000E+00 
SP   1    1.000000
   4.38000000E-02    1.00000000E+00   1.00000000E+00 
SP   1    1.000000
   1.31927711E-02    1.00000000E+00   1.00000000E+00 
D    1    1.000000
   6.26000000E-01    1.00000000E+00 

2    0
S    3    1.000000
   3.38650000E+01    2.54938000E-02 
   5.09479000E+00    1.90373000E-01 
   1.15879000E+00    8.52161000E-01 
S    1    1.000000
   3.25840000E-01    1.00000000E+00 
S    1    1.000000
   1.02741000E-01    1.00000000E+00 
S    1    1.000000
   3.60000000E-02    1.00000000E+00 
P    1    1.000000
   7.50000000E-01    1.00000000E+00 

3    0
S    3    1.000000
   3.38650000E+01    2.54938000E-02 
   5.09479000E+00    1.90373000E-01 
   1.15879000E+00    8.52161000E-01 
S    1    1.000000
   3.25840000E-01    1.00000000E+00 
S    1    1.000000
   1.02741000E-01    1.00000000E+00 
S    1    1.000000
   3.60000000E-02    1.00000000E+00 
P    1    1.000000
   7.50000000E-01    1.00000000E+00 

4    0
S    3    1.000000
   3.38650000E+01    2.54938000E-02 
   5.09479000E+00    1.90373000E-01 
   1.15879000E+00    8.52161000E-01 
S    1    1.000000
   3.25840000E-01    1.00000000E+00 
S    1    1.000000
   1.02741000E-01    1.00000000E+00 
S    1    1.000000
   3.60000000E-02    1.00000000E+00 
P    1    1.000000
   7.50000000E-01    1.00000000E+00 

5    0
S    1    1.000000
   4.56324000E+03    1.96665000E-03 
S    1    1.000000
   6.82024000E+02    1.52306000E-02 
S    1    1.000000
   1.54973000E+02    7.61269000E-02 
S    1    1.000000
   4.44553000E+01    2.60801000E-01 
S    1    1.000000
   1.30290000E+01    6.16462000E-01 
S    1    1.000000
   1.82773000E+00    2.21006000E-01 
SP   3    1.000000
   2.09642000E+01    1.14660000E-01   4.02487000E-02 
   4.80331000E+00    9.19999000E-01   2.37594000E-01 
   1.45933000E+00   -3.03068000E-03   8.15854000E-01 
SP   1    1.000000
   4.83456000E-01    1.00000000E+00   1.00000000E+00 
SP   1    1.000000
   1.45585000E-01    1.00000000E+00   1.00000000E+00 
SP   1    1.000000
   4.38000000E-02    1.00000000E+00   1.00000000E+00 
SP   1    1.000000
   1.31927711E-02    1.00000000E+00   1.00000000E+00 
D    1    1.000000
   6.26000000E-01    1.00000000E+00 

6    0
S    1    1.000000
   8.58850000E+03    1.89515000E-03 
S    1    1.000000
   1.29723000E+03    1.43859000E-02 
S    1    1.000000
   2.99296000E+02    7.07320000E-02 
S    1    1.000000
   8.73771000E+01    2.40001000E-01 
S    1    1.000000
   2.56789000E+01    5.94797000E-01 
S    1    1.000000
   3.74004000E+00    2.80802000E-01 
SP   3    1.000000
   4.21175000E+01    1.13889000E-01   3.65114000E-02 
   9.62837000E+00    9.20811000E-01   2.37153000E-01 
   2.85332000E+00   -3.27447000E-03   8.19702000E-01 
SP   1    1.000000
   9.05661000E-01    1.00000000E+00   1.00000000E+00 
SP   1    1.000000
   2.55611000E-01    1.00000000E+00   1.00000000E+00 
SP   1    1.000000
   8.45000000E-02    1.00000000E+00   1.00000000E+00 
SP   1    1.000000
   2.54518072E-02    1.00000000E+00   1.00000000E+00 
D    1    1.000000
   1.29200000E+00    1.00000000E+00 

7    0
S    1    1.000000
   4.56324000E+03    1.96665000E-03 
S    1    1.000000
   6.82024000E+02    1.52306000E-02 
S    1    1.000000
   1.54973000E+02    7.61269000E-02 
S    1    1.000000
   4.44553000E+01    2.60801000E-01 
S    1    1.000000
   1.30290000E+01    6.16462000E-01 
S    1    1.000000
   1.82773000E+00    2.21006000E-01 
SP   3    1.000000
   2.09642000E+01    1.14660000E-01   4.02487000E-02 
   4.80331000E+00    9.19999000E-01   2.37594000E-01 
   1.45933000E+00   -3.03068000E-03   8.15854000E-01 
SP   1    1.000000
   4.83456000E-01    1.00000000E+00   1.00000000E+00 
SP   1    1.000000
   1.45585000E-01    1.00000000E+00   1.00000000E+00 
SP   1    1.000000
   4.38000000E-02    1.00000000E+00   1.00000000E+00 
SP   1    1.000000
   1.31927711E-02    1.00000000E+00   1.00000000E+00 
D    1    1.000000
   6.26000000E-01    1.00000000E+00 

8    0
S    1    1.000000
   8.58850000E+03    1.89515000E-03 
S    1    1.000000
   1.29723000E+03    1.43859000E-02 
S    1    1.000000
   2.99296000E+02    7.07320000E-02 
S    1    1.000000
   8.73771000E+01    2.40001000E-01 
S    1    1.000000
   2.56789000E+01    5.94797000E-01 
S    1    1.000000
   3.74004000E+00    2.80802000E-01 
SP   3    1.000000
   4.21175000E+01    1.13889000E-01   3.65114000E-02 
   9.62837000E+00    9.20811000E-01   2.37153000E-01 
   2.85332000E+00   -3.27447000E-03   8.19702000E-01 
SP   1    1.000000
   9.05661000E-01    1.00000000E+00   1.00000000E+00 
SP   1    1.000000
   2.55611000E-01    1.00000000E+00   1.00000000E+00 
SP   1    1.000000
   8.45000000E-02    1.00000000E+00   1.00000000E+00 
SP   1    1.000000
   2.54518072E-02    1.00000000E+00   1.00000000E+00 
D    1    1.000000
   1.29200000E+00    1.00000000E+00 

9    0
S    1    1.000000
   6.29348000E+03    1.96979000E-03 
S    1    1.000000
   9.49044000E+02    1.49613000E-02 
S    1    1.000000
   2.18776000E+02    7.35006000E-02 
S    1    1.000000
   6.36916000E+01    2.48937000E-01 
S    1    1.000000
   1.88282000E+01    6.02460000E-01 
S    1    1.000000
   2.72023000E+00    2.56202000E-01 
SP   3    1.000000
   3.06331000E+01    1.11906000E-01   3.83119000E-02 
   7.02614000E+00    9.21666000E-01   2.37403000E-01 
   2.11205000E+00   -2.56919000E-03   8.17592000E-01 
SP   1    1.000000
   6.84009000E-01    1.00000000E+00   1.00000000E+00 
SP   1    1.000000
   2.00878000E-01    1.00000000E+00   1.00000000E+00 
SP   1    1.000000
   6.39000000E-02    1.00000000E+00   1.00000000E+00 
SP   1    1.000000
   1.92469880E-02    1.00000000E+00   1.00000000E+00 
D    1    1.000000
   9.13000000E-01    1.00000000E+00 

10    0
S    1    1.000000
   6.29348000E+03    1.96979000E-03 
S    1    1.000000
   9.49044000E+02    1.49613000E-02 
S    1    1.000000
   2.18776000E+02    7.35006000E-02 
S    1    1.000000
   6.36916000E+01    2.48937000E-01 
S    1    1.000000
   1.88282000E+01    6.02460000E-01 
S    1    1.000000
   2.72023000E+00    2.56202000E-01 
SP   3    1.000000
   3.06331000E+01    1.11906000E-01   3.83119000E-02 
   7.02614000E+00    9.21666000E-01   2.37403000E-01 
   2.11205000E+00   -2.56919000E-03   8.17592000E-01 
SP   1    1.000000
   6.84009000E-01    1.00000000E+00   1.00000000E+00 
SP   1    1.000000
   2.00878000E-01    1.00000000E+00   1.00000000E+00 
SP   1    1.000000
   6.39000000E-02    1.00000000E+00   1.00000000E+00 
SP   1    1.000000
   1.92469880E-02    1.00000000E+00   1.00000000E+00 
D    1    1.000000
   9.13000000E-01    1.00000000E+00 

11    0
S    1    1.000000
   4.56324000E+03    1.96665000E-03 
S    1    1.000000
   6.82024000E+02    1.52306000E-02 
S    1    1.000000
   1.54973000E+02    7.61269000E-02 
S    1    1.000000
   4.44553000E+01    2.60801000E-01 
S    1    1.000000
   1.30290000E+01    6.16462000E-01 
S    1    1.000000
   1.82773000E+00    2.21006000E-01 
SP   3    1.000000
   2.09642000E+01    1.14660000E-01   4.02487000E-02 
   4.80331000E+00    9.19999000E-01   2.37594000E-01 
   1.45933000E+00   -3.03068000E-03   8.15854000E-01 
SP   1    1.000000
   4.83456000E-01    1.00000000E+00   1.00000000E+00 
SP   1    1.000000
   1.45585000E-01    1.00000000E+00   1.00000000E+00 
SP   1    1.000000
   4.38000000E-02    1.00000000E+00   1.00000000E+00 
SP   1    1.000000
   1.31927711E-02    1.00000000E+00   1.00000000E+00 
D    1    1.000000
   6.26000000E-01    1.00000000E+00 

12    0
S    3    1.000000
   3.38650000E+01    2.54938000E-02 
   5.09479000E+00    1.90373000E-01 
   1.15879000E+00    8.52161000E-01 
S    1    1.000000
   3.25840000E-01    1.00000000E+00 
S    1    1.000000
   1.02741000E-01    1.00000000E+00 
S    1    1.000000
   3.60000000E-02    1.00000000E+00 
P    1    1.000000
   7.50000000E-01    1.00000000E+00 

[MO]
Sym=X
Ene=9.9e-05
Spin=Alpha
Occup=1
1    -0.00129970528
2    -0.00648326405
3    -0.0222602439
4    -0.0525756448
5    -0.0191722359
6    -0.0704635017
7    0.000207304132
8    -1.17488943e-05
9    4.09221608e-16
10    -9.01388762e-05
11    0.000141245124
12    0.000113342451
13    -2.52877025e-15
14    -0.000335521514
15    -0.000155476208
16    -0.00023760958
17    1.27700703e-15
18    -0.00419910045
19    -0.000390702251
20    -0.00183329758
21    -7.99890528e-15
22    -0.000340532511
23    0.000191091061
24    -0.000186184092
25    -7.48126595e-14
26    0.000118459253
27    -2.16578121e-16
28    1.23573394e-05
29    -6.82087622e-16
30    7.08804579e-05
31    -3.03520755e-05
32    1.13882923e-06
33    2.60131221e-05
34    6.95141325e-05
35    -3.53995726e-05
36    -2.42641647e-05
37    5.73571371e-16
38    -5.64693454e-05
39    -4.15238452e-05
40    -0.000182351733
41    -0.00108127967
42    2.56392416e-05
43    -2.75247515e-05
44    3.31365511e-16
45    -2.26347578e-05
46    -1.44987215e-05
47    7.83754782e-05
48    8.8652658e-05
49    6.05067038e-06
50    3.77980403e-05
51    -8.70706446e-16
52    -0.00100047529
53    -0.00774514608
54    -0.038637529
55    -0.13264993
56    -0.313393901
57    -0.113995454
58    -0.419711344
59    -0.000582670872
60    0.000403583821
61    6.73477863e-16
62    -0.00145034937
63    0.000667811727
64    -0.000428842779
65    3.95619988e-15
66    -0.00156633816
67    -0.000473614034
68    0.000249714413
69    -4.12509095e-15
70    0.000348279134
71    0.000599263654
72    -0.000568231776
73    3.16080216e-14
74    0.000581128506
75    -5.21843256e-05
76    -8.71732167e-05
77    3.71562942e-14
78    0.000254509501
79    4.2582966e-16
80    0.00022158054
81    -1.38563625e-15
82    -0.000132597941
83    6.28014478e-07
84    4.69184904e-06
85    2.37915632e-05
86    7.84628753e-05
87    0.000214089399
88    0.000205295867
89    0.000310495451
90    -0.00019096681
91    0.00011543356
92    1.37050198e-15
93    -0.000534500168
94    -0.000480049335
95    0.000291112141
96    2.60958096e-15
97    0.000223249784
98    0.000214453442
99    -0.000122179725
100    3.95547033e-15
101    -0.000260100353
102    -0.000303396031
103    0.000156812598
104    3.91315774e-16
105    0.000937722338
106    0.000195365425
107    -4.71003321e-05
108    -3.07526806e-14
109    0.000216607803
110    -3.48607293e-16
111    0.000105398222
112    1.7672107e-16
113    -0.000112473574
114    8.411708e-05
115    0.000651177439
116    0.00324850506
117    0.0111522234
118    0.0263493013
119    0.00956533906
120    0.0352677342
121    -7.549821e-05
122    4.24430705e-06
123    -2.66238138e-15
124    0.000290695922
125    0.000101423316
126    -0.000260725048
127    -4.35497457e-15
128    -0.000214840601
129    -0.000138488993
130    0.000296590793
131    -5.24546825e-15
132    -0.00390799862
133    0.000659595875
134    0.00132851358
135    -3.33462358e-14
136    -0.000679391516
137    3.59291224e-05
138    0.000131352085
139    -3.22832478e-14
140    5.37924612e-05
141    2.25683806e-16
142    -5.1681188e-05
143    2.17200181e-16
144    -0.000171238294
145    5.12879668e-06
146    3.90256976e-05
147    0.000191268436
148    0.000651229259
149    0.00160915471
150    0.000750447958
151    0.00231691051
152    -2.17076203e-05
153    -6.83918831e-06
154    -1.20228993e-15
155    7.21187898e-05
156    -3.58101051e-05
157    -3.85951534e-05
158    -1.82592909e-15
159    3.74848754e-06
160    8.58398406e-06
161    -3.99974007e-05
162    -6.70897294e-15
163    0.000249130931
164    -0.000155157571
165    -9.36709526e-05
166    1.40039084e-15
167    -0.00079910496
168    0.000153365716
169    -5.0228686e-05
170    5.02790366e-15
171    3.21900073e-05
172    3.89000076e-16
173    -1.01420622e-05
174    4.13126108e-16
175    -5.46409206e-06
176    -3.53578839e-06
177    -2.70164575e-05
178    -0.000131595673
179    -0.000449245402
180    -0.00106037878
181    -0.000326257109
182    -0.00153034148
183    6.06749242e-05
184    4.16595872e-05
185    -1.21320445e-15
186    -0.000455944666
187    0.000653350407
188    0.000228151816
189    -1.623777e-15
190    0.000185737082
191    -0.000255766066
192    -8.88240626e-05
193    -2.78524042e-15
194    0.000485168435
195    -0.000638902736
196    -0.000273470111
197    -7.25801253e-17
198    0.000180746326
199    0.00040600939
200    -7.38144725e-05
201    -1.86406104e-14
202    -0.000241616038
203    1.56377465e-18
204    7.78779161e-05
205    -6.73768996e-16
206    -0.00016478279
207    3.4722914e-07
208    2.51420555e-06
209    1.3371335e-05
210    4.18869718e-05
211    0.000136441031
212    0.000230516481
213    0.000111508581
214    -2.78282671e-05
215    -6.37222121e-05
216    1.24356364e-15
217    -0.000567522968
218    -3.98815931e-05
219    -0.000584272652
220    -6.35852203e-16
221    0.000197600756
222    8.65904234e-06
223    0.000218997657
224    7.02365731e-15
225    0.00100061163
226    0.00018382032
227    0.00026813728
228    -1.6813735e-14
229    0.000290736576
230    0.00019515099
231    -0.000166268786
232    2.84885161e-14
233    6.27566253e-05
234    3.56282122e-16
235    0.000106002139
236    -3.89070185e-16
237    0.000273868158
238    0.000441325512
239    0.0034166229
240    0.0170431772
241    0.0585174237
242    0.138231076
243    0.0505682237
244    0.185038639
245    -5.74915454e-05
246    0.00011271222
247    -1.90191099e-15
248    0.00065526961
249    8.70015799e-05
250    -2.21973348e-05
251    -3.8242136e-15
252    0.000733695567
253    -0.000298591521
254    0.0002087287
255    -6.6421765e-15
256    0.00696023013
257    -0.00122358954
258    0.0011155852
259    7.64998326e-15
260    0.000257890794
261    3.73315658e-06
262    0.000170423051
263    5.54452352e-14
264    -1.71498172e-05
265    -5.25718687e-16
266    -4.88488493e-05
267    -1.34492486e-16
268    -1.29844016e-05
269    0.000144107886
270    0.00013598864
271    0.000144744958
272    0.000342799175
273    -8.3513995e-05
274    6.21905652e-05
275    -1.15697099e-15
[5D]