[Molden Format]
[Atoms] (Angs)
  C      1    6     -0.00714236     -1.70213747     -0.00000000
  H      2    1     -2.06882847     -1.44022412      0.00000000
  H      3    1     -0.12337987     -2.77567521      0.00000000
  H      4    1      0.04651892      1.98813947     -0.00000000
  C      5    6     -1.21953563      0.40211669      0.00000000
  O      6    8     -2.25921553      1.03043814      0.00000000
  C      7    6      1.28797806      0.34644937     -0.00000000
  O      8    8      2.31273661      1.00537216     -0.00000000
  N      9    7      0.03446295      0.97739857     -0.00000000
  N     10    7     -1.17287765     -0.98229824      0.00000000
  C     11    6      1.20107039     -1.10433419     -0.00000000
  H     12    1      2.11220096     -1.67699125     -0.00000000
[GTO]
1    0
S    1    1.000000
   4.56324000E+03    1.96665000E-03 
S    1    1.000000
   6.82024000E+02    1.52306000E-02 
S    1    1.000000
   1.54973000E+02    7.61269000E-02 
S    1    1.000000
   4.44553000E+01    2.60801000E-01 
S    1    1.000000
   1.30290000E+01    6.16462000E-01 
S    1    1.000000
   1.82773000E+00    2.21006000E-01 
SP   3    1.000000
   2.09642000E+01    1.14660000E-01   4.02487000E-02 
   4.80331000E+00    9.19999000E-01   2.37594000E-01 
   1.45933000E+00   -3.03068000E-03   8.15854000E-01 
SP   1    1.000000
   4.83456000E-01    1.00000000E+00   1.00000000E+00 
SP   1    1.000000
   1.45585000E-01    1.00000000E+00   1.00000000E+00 
SP   1    1.000000
   4.38000000E-02    1.00000000E+00   1.00000000E+00 
SP   1    1.000000
   1.31927711E-02    1.00000000E+00   1.00000000E+00 
D    1    1.000000
   6.26000000E-01    1.00000000E+00 

2    0
S    3    1.000000
   3.38650000E+01    2.54938000E-02 
   5.09479000E+00    1.90373000E-01 
   1.15879000E+00    8.52161000E-01 
S    1    1.000000
   3.25840000E-01    1.00000000E+00 
S    1    1.000000
   1.02741000E-01    1.00000000E+00 
S    1    1.000000
   3.60000000E-02    1.00000000E+00 
P    1    1.000000
   7.50000000E-01    1.00000000E+00 

3    0
S    3    1.000000
   3.38650000E+01    2.54938000E-02 
   5.09479000E+00    1.90373000E-01 
   1.15879000E+00    8.52161000E-01 
S    1    1.000000
   3.25840000E-01    1.00000000E+00 
S    1    1.000000
   1.02741000E-01    1.00000000E+00 
S    1    1.000000
   3.60000000E-02    1.00000000E+00 
P    1    1.000000
   7.50000000E-01    1.00000000E+00 

4    0
S    3    1.000000
   3.38650000E+01    2.54938000E-02 
   5.09479000E+00    1.90373000E-01 
   1.15879000E+00    8.52161000E-01 
S    1    1.000000
   3.25840000E-01    1.00000000E+00 
S    1    1.000000
   1.02741000E-01    1.00000000E+00 
S    1    1.000000
   3.60000000E-02    1.00000000E+00 
P    1    1.000000
   7.50000000E-01    1.00000000E+00 

5    0
S    1    1.000000
   4.56324000E+03    1.96665000E-03 
S    1    1.000000
   6.82024000E+02    1.52306000E-02 
S    1    1.000000
   1.54973000E+02    7.61269000E-02 
S    1    1.000000
   4.44553000E+01    2.60801000E-01 
S    1    1.000000
   1.30290000E+01    6.16462000E-01 
S    1    1.000000
   1.82773000E+00    2.21006000E-01 
SP   3    1.000000
   2.09642000E+01    1.14660000E-01   4.02487000E-02 
   4.80331000E+00    9.19999000E-01   2.37594000E-01 
   1.45933000E+00   -3.03068000E-03   8.15854000E-01 
SP   1    1.000000
   4.83456000E-01    1.00000000E+00   1.00000000E+00 
SP   1    1.000000
   1.45585000E-01    1.00000000E+00   1.00000000E+00 
SP   1    1.000000
   4.38000000E-02    1.00000000E+00   1.00000000E+00 
SP   1    1.000000
   1.31927711E-02    1.00000000E+00   1.00000000E+00 
D    1    1.000000
   6.26000000E-01    1.00000000E+00 

6    0
S    1    1.000000
   8.58850000E+03    1.89515000E-03 
S    1    1.000000
   1.29723000E+03    1.43859000E-02 
S    1    1.000000
   2.99296000E+02    7.07320000E-02 
S    1    1.000000
   8.73771000E+01    2.40001000E-01 
S    1    1.000000
   2.56789000E+01    5.94797000E-01 
S    1    1.000000
   3.74004000E+00    2.80802000E-01 
SP   3    1.000000
   4.21175000E+01    1.13889000E-01   3.65114000E-02 
   9.62837000E+00    9.20811000E-01   2.37153000E-01 
   2.85332000E+00   -3.27447000E-03   8.19702000E-01 
SP   1    1.000000
   9.05661000E-01    1.00000000E+00   1.00000000E+00 
SP   1    1.000000
   2.55611000E-01    1.00000000E+00   1.00000000E+00 
SP   1    1.000000
   8.45000000E-02    1.00000000E+00   1.00000000E+00 
SP   1    1.000000
   2.54518072E-02    1.00000000E+00   1.00000000E+00 
D    1    1.000000
   1.29200000E+00    1.00000000E+00 

7    0
S    1    1.000000
   4.56324000E+03    1.96665000E-03 
S    1    1.000000
   6.82024000E+02    1.52306000E-02 
S    1    1.000000
   1.54973000E+02    7.61269000E-02 
S    1    1.000000
   4.44553000E+01    2.60801000E-01 
S    1    1.000000
   1.30290000E+01    6.16462000E-01 
S    1    1.000000
   1.82773000E+00    2.21006000E-01 
SP   3    1.000000
   2.09642000E+01    1.14660000E-01   4.02487000E-02 
   4.80331000E+00    9.19999000E-01   2.37594000E-01 
   1.45933000E+00   -3.03068000E-03   8.15854000E-01 
SP   1    1.000000
   4.83456000E-01    1.00000000E+00   1.00000000E+00 
SP   1    1.000000
   1.45585000E-01    1.00000000E+00   1.00000000E+00 
SP   1    1.000000
   4.38000000E-02    1.00000000E+00   1.00000000E+00 
SP   1    1.000000
   1.31927711E-02    1.00000000E+00   1.00000000E+00 
D    1    1.000000
   6.26000000E-01    1.00000000E+00 

8    0
S    1    1.000000
   8.58850000E+03    1.89515000E-03 
S    1    1.000000
   1.29723000E+03    1.43859000E-02 
S    1    1.000000
   2.99296000E+02    7.07320000E-02 
S    1    1.000000
   8.73771000E+01    2.40001000E-01 
S    1    1.000000
   2.56789000E+01    5.94797000E-01 
S    1    1.000000
   3.74004000E+00    2.80802000E-01 
SP   3    1.000000
   4.21175000E+01    1.13889000E-01   3.65114000E-02 
   9.62837000E+00    9.20811000E-01   2.37153000E-01 
   2.85332000E+00   -3.27447000E-03   8.19702000E-01 
SP   1    1.000000
   9.05661000E-01    1.00000000E+00   1.00000000E+00 
SP   1    1.000000
   2.55611000E-01    1.00000000E+00   1.00000000E+00 
SP   1    1.000000
   8.45000000E-02    1.00000000E+00   1.00000000E+00 
SP   1    1.000000
   2.54518072E-02    1.00000000E+00   1.00000000E+00 
D    1    1.000000
   1.29200000E+00    1.00000000E+00 

9    0
S    1    1.000000
   6.29348000E+03    1.96979000E-03 
S    1    1.000000
   9.49044000E+02    1.49613000E-02 
S    1    1.000000
   2.18776000E+02    7.35006000E-02 
S    1    1.000000
   6.36916000E+01    2.48937000E-01 
S    1    1.000000
   1.88282000E+01    6.02460000E-01 
S    1    1.000000
   2.72023000E+00    2.56202000E-01 
SP   3    1.000000
   3.06331000E+01    1.11906000E-01   3.83119000E-02 
   7.02614000E+00    9.21666000E-01   2.37403000E-01 
   2.11205000E+00   -2.56919000E-03   8.17592000E-01 
SP   1    1.000000
   6.84009000E-01    1.00000000E+00   1.00000000E+00 
SP   1    1.000000
   2.00878000E-01    1.00000000E+00   1.00000000E+00 
SP   1    1.000000
   6.39000000E-02    1.00000000E+00   1.00000000E+00 
SP   1    1.000000
   1.92469880E-02    1.00000000E+00   1.00000000E+00 
D    1    1.000000
   9.13000000E-01    1.00000000E+00 

10    0
S    1    1.000000
   6.29348000E+03    1.96979000E-03 
S    1    1.000000
   9.49044000E+02    1.49613000E-02 
S    1    1.000000
   2.18776000E+02    7.35006000E-02 
S    1    1.000000
   6.36916000E+01    2.48937000E-01 
S    1    1.000000
   1.88282000E+01    6.02460000E-01 
S    1    1.000000
   2.72023000E+00    2.56202000E-01 
SP   3    1.000000
   3.06331000E+01    1.11906000E-01   3.83119000E-02 
   7.02614000E+00    9.21666000E-01   2.37403000E-01 
   2.11205000E+00   -2.56919000E-03   8.17592000E-01 
SP   1    1.000000
   6.84009000E-01    1.00000000E+00   1.00000000E+00 
SP   1    1.000000
   2.00878000E-01    1.00000000E+00   1.00000000E+00 
SP   1    1.000000
   6.39000000E-02    1.00000000E+00   1.00000000E+00 
SP   1    1.000000
   1.92469880E-02    1.00000000E+00   1.00000000E+00 
D    1    1.000000
   9.13000000E-01    1.00000000E+00 

11    0
S    1    1.000000
   4.56324000E+03    1.96665000E-03 
S    1    1.000000
   6.82024000E+02    1.52306000E-02 
S    1    1.000000
   1.54973000E+02    7.61269000E-02 
S    1    1.000000
   4.44553000E+01    2.60801000E-01 
S    1    1.000000
   1.30290000E+01    6.16462000E-01 
S    1    1.000000
   1.82773000E+00    2.21006000E-01 
SP   3    1.000000
   2.09642000E+01    1.14660000E-01   4.02487000E-02 
   4.80331000E+00    9.19999000E-01   2.37594000E-01 
   1.45933000E+00   -3.03068000E-03   8.15854000E-01 
SP   1    1.000000
   4.83456000E-01    1.00000000E+00   1.00000000E+00 
SP   1    1.000000
   1.45585000E-01    1.00000000E+00   1.00000000E+00 
SP   1    1.000000
   4.38000000E-02    1.00000000E+00   1.00000000E+00 
SP   1    1.000000
   1.31927711E-02    1.00000000E+00   1.00000000E+00 
D    1    1.000000
   6.26000000E-01    1.00000000E+00 

12    0
S    3    1.000000
   3.38650000E+01    2.54938000E-02 
   5.09479000E+00    1.90373000E-01 
   1.15879000E+00    8.52161000E-01 
S    1    1.000000
   3.25840000E-01    1.00000000E+00 
S    1    1.000000
   1.02741000E-01    1.00000000E+00 
S    1    1.000000
   3.60000000E-02    1.00000000E+00 
P    1    1.000000
   7.50000000E-01    1.00000000E+00 

[MO]
Sym=X
Ene=0.920893
Spin=Alpha
Occup=1
1    0.000103167827
2    0.00051422299
3    0.00176794992
4    0.00415791895
5    0.00155588243
6    0.00568591767
7    -0.000148915767
8    -7.1826752e-05
9    -4.38475631e-16
10    -0.000484878073
11    -0.000547414339
12    -0.000299155966
13    1.44554296e-15
14    0.0010128348
15    0.000285089679
16    0.000624622986
17    7.05681596e-16
18    0.00257404566
19    0.000126168617
20    0.00137459614
21    -5.83754073e-14
22    0.000219527938
23    -1.49115881e-06
24    0.0002577668
25    6.93004557e-14
26    -0.000292035985
27    2.99026446e-16
28    2.00897242e-05
29    7.83929916e-16
30    -0.000208537777
31    -6.67093905e-06
32    -5.6744328e-05
33    -9.60676087e-05
34    -0.000313223939
35    -1.47554431e-05
36    4.89072445e-06
37    -1.44122106e-15
38    -2.44591141e-05
39    -6.08662642e-05
40    0.000412802101
41    0.000691459649
42    -5.79710849e-05
43    -6.46822275e-05
44    -1.68781976e-17
45    -1.2642512e-05
46    -4.00526787e-05
47    -2.33494212e-05
48    -0.000253522557
49    -5.80816316e-06
50    4.58570342e-06
51    1.11338244e-15
52    -4.49289347e-08
53    -3.72669482e-07
54    -1.67968543e-06
55    -6.46486983e-06
56    -8.72705106e-06
57    2.22192279e-05
58    -3.47084154e-05
59    3.87798989e-06
60    -4.09590484e-06
61    -2.01782004e-15
62    -7.16004879e-05
63    -9.80192859e-06
64    1.45719482e-05
65    -1.73350174e-16
66    0.000607415702
67    0.000480954502
68    -0.000261061992
69    -5.45630084e-15
70    -8.01761609e-05
71    0.000203856981
72    9.13629071e-05
73    -8.15343019e-14
74    -8.21914395e-05
75    7.20469742e-05
76    -4.58278665e-05
77    -6.3226045e-14
78    -3.68272061e-06
79    5.06595866e-16
80    -9.47978191e-06
81    1.20859748e-15
82    -1.64971267e-06
83    5.32390046e-10
84    -3.92371817e-09
85    3.81934402e-08
86    -8.46887062e-08
87    1.90155246e-06
88    8.02698559e-06
89    -4.68091721e-06
90    2.583007e-06
91    -6.77410041e-07
92    -8.14902305e-16
93    -2.08792838e-05
94    -1.30799243e-05
95    4.93932844e-06
96    -2.59980712e-15
97    9.70224955e-05
98    4.62834756e-05
99    -2.49240183e-05
100    -3.54335972e-15
101    0.000546083799
102    0.000131282681
103    -8.61093174e-05
104    3.67923732e-15
105    0.000109467523
106    -5.54949603e-05
107    -0.000107663095
108    2.74472221e-14
109    3.93200483e-07
110    2.25279935e-16
111    -1.18080899e-06
112    -4.62740458e-16
113    -1.19824303e-06
114    4.36115645e-06
115    3.37356511e-05
116    0.000168585499
117    0.000578308293
118    0.00137834079
119    0.000628354668
120    0.0018360633
121    3.88744354e-06
122    8.1542478e-05
123    4.26011842e-15
124    -0.000548391709
125    3.8408195e-05
126    0.000634042803
127    3.82184166e-15
128    0.000617484762
129    -0.000522401506
130    -0.000918011229
131    1.40276926e-14
132    0.0018655734
133    -0.000785471016
134    -0.00105446416
135    -7.11030671e-14
136    0.000309518887
137    7.00943899e-05
138    -1.83907082e-06
139    4.44681418e-14
140    -5.73364433e-05
141    3.17654882e-16
142    7.1705965e-05
143    3.91214404e-16
144    0.000352684005
145    -5.95159785e-09
146    -8.13954404e-08
147    -1.43758164e-07
148    -1.45103459e-06
149    6.12550574e-06
150    3.51456274e-05
151    -2.75623989e-05
152    -8.320006e-06
153    -2.39727911e-05
154    2.02085273e-15
155    -7.15767069e-05
156    4.31748781e-05
157    4.16748638e-05
158    5.70227856e-15
159    0.000196944431
160    -0.000125752031
161    -1.51674097e-06
162    3.11902012e-15
163    0.000837905958
164    -0.00011910615
165    -4.88010397e-05
166    1.58840589e-14
167    0.001820768
168    -0.000361949695
169    -0.000103871282
170    3.05564916e-15
171    -2.74113061e-05
172    -6.59724759e-16
173    1.2209186e-06
174    -6.73537349e-16
175    2.53025013e-05
176    -8.71019615e-09
177    -1.09884765e-07
178    -2.30226089e-07
179    -1.97478452e-06
180    6.43644005e-06
181    4.11127288e-05
182    -3.24451687e-05
183    2.41197506e-05
184    -1.42229937e-05
185    -1.12847118e-15
186    -4.80925354e-05
187    -8.62597823e-05
188    3.70574862e-05
189    7.00336805e-15
190    -0.000289243444
191    0.000195291647
192    0.000220957248
193    -1.52217615e-14
194    -0.000660499999
195    0.000254031246
196    0.000297616119
197    6.18364509e-14
198    -0.000721397179
199    -0.000591934236
200    0.000194570027
201    4.31544667e-14
202    3.41012509e-05
203    -2.63356536e-16
204    4.24539391e-06
205    7.72984299e-16
206    -1.58527322e-05
207    -1.19883435e-08
208    -1.38149928e-07
209    -3.45079688e-07
210    -2.46320972e-06
211    5.95993149e-06
212    4.17822836e-05
213    -3.53515557e-05
214    2.75200955e-05
215    -9.03141552e-06
216    -3.18692383e-15
217    -5.0756988e-05
218    -8.72262083e-05
219    3.78205617e-05
220    2.48127669e-15
221    -0.000301929179
222    -0.000155834974
223    -0.000188485719
224    -1.5954168e-14
225    -0.000998467653
226    -0.000423618102
227    -0.000261889107
228    5.29537338e-14
229    -0.000570943692
230    -4.9271595e-05
231    -0.000224284598
232    1.21694171e-14
233    2.29157971e-05
234    -2.60099641e-17
235    1.0231022e-05
236    2.37535272e-16
237    -3.82536445e-05
238    -0.00110905849
239    -0.00858604387
240    -0.0428297316
241    -0.147055389
242    -0.347374136
243    -0.127043047
244    -0.46500011
245    0.000180351728
246    -0.000232442857
247    6.68912897e-16
248    -0.00182146233
249    3.87404301e-05
250    0.000148274442
251    6.14912085e-15
252    -0.0018696745
253    0.000801711685
254    -0.000609511643
255    -4.92099332e-15
256    -0.00460287182
257    0.00101488039
258    -0.00101734704
259    7.93630878e-14
260    -0.000265754879
261    -9.75289726e-05
262    -0.000223524823
263    -7.85941579e-14
264    -6.52888332e-05
265    6.21578258e-16
266    9.58496888e-05
267    2.42444067e-16
268    -8.31786155e-05
269    -0.000378101329
270    -0.00045019722
271    -0.00028909712
272    -0.000474492695
273    0.000265484078
274    -0.000153346434
275    1.02179101e-15
[5D]