[Molden Format]
[Atoms] (Angs)
  C      1    6     -0.00714236     -1.70213747     -0.00000000
  H      2    1     -2.06882847     -1.44022412      0.00000000
  H      3    1     -0.12337987     -2.77567521      0.00000000
  H      4    1      0.04651892      1.98813947     -0.00000000
  C      5    6     -1.21953563      0.40211669      0.00000000
  O      6    8     -2.25921553      1.03043814      0.00000000
  C      7    6      1.28797806      0.34644937     -0.00000000
  O      8    8      2.31273661      1.00537216     -0.00000000
  N      9    7      0.03446295      0.97739857     -0.00000000
  N     10    7     -1.17287765     -0.98229824      0.00000000
  C     11    6      1.20107039     -1.10433419     -0.00000000
  H     12    1      2.11220096     -1.67699125     -0.00000000
[GTO]
1    0
S    1    1.000000
   4.56324000E+03    1.96665000E-03 
S    1    1.000000
   6.82024000E+02    1.52306000E-02 
S    1    1.000000
   1.54973000E+02    7.61269000E-02 
S    1    1.000000
   4.44553000E+01    2.60801000E-01 
S    1    1.000000
   1.30290000E+01    6.16462000E-01 
S    1    1.000000
   1.82773000E+00    2.21006000E-01 
SP   3    1.000000
   2.09642000E+01    1.14660000E-01   4.02487000E-02 
   4.80331000E+00    9.19999000E-01   2.37594000E-01 
   1.45933000E+00   -3.03068000E-03   8.15854000E-01 
SP   1    1.000000
   4.83456000E-01    1.00000000E+00   1.00000000E+00 
SP   1    1.000000
   1.45585000E-01    1.00000000E+00   1.00000000E+00 
SP   1    1.000000
   4.38000000E-02    1.00000000E+00   1.00000000E+00 
SP   1    1.000000
   1.31927711E-02    1.00000000E+00   1.00000000E+00 
D    1    1.000000
   6.26000000E-01    1.00000000E+00 

2    0
S    3    1.000000
   3.38650000E+01    2.54938000E-02 
   5.09479000E+00    1.90373000E-01 
   1.15879000E+00    8.52161000E-01 
S    1    1.000000
   3.25840000E-01    1.00000000E+00 
S    1    1.000000
   1.02741000E-01    1.00000000E+00 
S    1    1.000000
   3.60000000E-02    1.00000000E+00 
P    1    1.000000
   7.50000000E-01    1.00000000E+00 

3    0
S    3    1.000000
   3.38650000E+01    2.54938000E-02 
   5.09479000E+00    1.90373000E-01 
   1.15879000E+00    8.52161000E-01 
S    1    1.000000
   3.25840000E-01    1.00000000E+00 
S    1    1.000000
   1.02741000E-01    1.00000000E+00 
S    1    1.000000
   3.60000000E-02    1.00000000E+00 
P    1    1.000000
   7.50000000E-01    1.00000000E+00 

4    0
S    3    1.000000
   3.38650000E+01    2.54938000E-02 
   5.09479000E+00    1.90373000E-01 
   1.15879000E+00    8.52161000E-01 
S    1    1.000000
   3.25840000E-01    1.00000000E+00 
S    1    1.000000
   1.02741000E-01    1.00000000E+00 
S    1    1.000000
   3.60000000E-02    1.00000000E+00 
P    1    1.000000
   7.50000000E-01    1.00000000E+00 

5    0
S    1    1.000000
   4.56324000E+03    1.96665000E-03 
S    1    1.000000
   6.82024000E+02    1.52306000E-02 
S    1    1.000000
   1.54973000E+02    7.61269000E-02 
S    1    1.000000
   4.44553000E+01    2.60801000E-01 
S    1    1.000000
   1.30290000E+01    6.16462000E-01 
S    1    1.000000
   1.82773000E+00    2.21006000E-01 
SP   3    1.000000
   2.09642000E+01    1.14660000E-01   4.02487000E-02 
   4.80331000E+00    9.19999000E-01   2.37594000E-01 
   1.45933000E+00   -3.03068000E-03   8.15854000E-01 
SP   1    1.000000
   4.83456000E-01    1.00000000E+00   1.00000000E+00 
SP   1    1.000000
   1.45585000E-01    1.00000000E+00   1.00000000E+00 
SP   1    1.000000
   4.38000000E-02    1.00000000E+00   1.00000000E+00 
SP   1    1.000000
   1.31927711E-02    1.00000000E+00   1.00000000E+00 
D    1    1.000000
   6.26000000E-01    1.00000000E+00 

6    0
S    1    1.000000
   8.58850000E+03    1.89515000E-03 
S    1    1.000000
   1.29723000E+03    1.43859000E-02 
S    1    1.000000
   2.99296000E+02    7.07320000E-02 
S    1    1.000000
   8.73771000E+01    2.40001000E-01 
S    1    1.000000
   2.56789000E+01    5.94797000E-01 
S    1    1.000000
   3.74004000E+00    2.80802000E-01 
SP   3    1.000000
   4.21175000E+01    1.13889000E-01   3.65114000E-02 
   9.62837000E+00    9.20811000E-01   2.37153000E-01 
   2.85332000E+00   -3.27447000E-03   8.19702000E-01 
SP   1    1.000000
   9.05661000E-01    1.00000000E+00   1.00000000E+00 
SP   1    1.000000
   2.55611000E-01    1.00000000E+00   1.00000000E+00 
SP   1    1.000000
   8.45000000E-02    1.00000000E+00   1.00000000E+00 
SP   1    1.000000
   2.54518072E-02    1.00000000E+00   1.00000000E+00 
D    1    1.000000
   1.29200000E+00    1.00000000E+00 

7    0
S    1    1.000000
   4.56324000E+03    1.96665000E-03 
S    1    1.000000
   6.82024000E+02    1.52306000E-02 
S    1    1.000000
   1.54973000E+02    7.61269000E-02 
S    1    1.000000
   4.44553000E+01    2.60801000E-01 
S    1    1.000000
   1.30290000E+01    6.16462000E-01 
S    1    1.000000
   1.82773000E+00    2.21006000E-01 
SP   3    1.000000
   2.09642000E+01    1.14660000E-01   4.02487000E-02 
   4.80331000E+00    9.19999000E-01   2.37594000E-01 
   1.45933000E+00   -3.03068000E-03   8.15854000E-01 
SP   1    1.000000
   4.83456000E-01    1.00000000E+00   1.00000000E+00 
SP   1    1.000000
   1.45585000E-01    1.00000000E+00   1.00000000E+00 
SP   1    1.000000
   4.38000000E-02    1.00000000E+00   1.00000000E+00 
SP   1    1.000000
   1.31927711E-02    1.00000000E+00   1.00000000E+00 
D    1    1.000000
   6.26000000E-01    1.00000000E+00 

8    0
S    1    1.000000
   8.58850000E+03    1.89515000E-03 
S    1    1.000000
   1.29723000E+03    1.43859000E-02 
S    1    1.000000
   2.99296000E+02    7.07320000E-02 
S    1    1.000000
   8.73771000E+01    2.40001000E-01 
S    1    1.000000
   2.56789000E+01    5.94797000E-01 
S    1    1.000000
   3.74004000E+00    2.80802000E-01 
SP   3    1.000000
   4.21175000E+01    1.13889000E-01   3.65114000E-02 
   9.62837000E+00    9.20811000E-01   2.37153000E-01 
   2.85332000E+00   -3.27447000E-03   8.19702000E-01 
SP   1    1.000000
   9.05661000E-01    1.00000000E+00   1.00000000E+00 
SP   1    1.000000
   2.55611000E-01    1.00000000E+00   1.00000000E+00 
SP   1    1.000000
   8.45000000E-02    1.00000000E+00   1.00000000E+00 
SP   1    1.000000
   2.54518072E-02    1.00000000E+00   1.00000000E+00 
D    1    1.000000
   1.29200000E+00    1.00000000E+00 

9    0
S    1    1.000000
   6.29348000E+03    1.96979000E-03 
S    1    1.000000
   9.49044000E+02    1.49613000E-02 
S    1    1.000000
   2.18776000E+02    7.35006000E-02 
S    1    1.000000
   6.36916000E+01    2.48937000E-01 
S    1    1.000000
   1.88282000E+01    6.02460000E-01 
S    1    1.000000
   2.72023000E+00    2.56202000E-01 
SP   3    1.000000
   3.06331000E+01    1.11906000E-01   3.83119000E-02 
   7.02614000E+00    9.21666000E-01   2.37403000E-01 
   2.11205000E+00   -2.56919000E-03   8.17592000E-01 
SP   1    1.000000
   6.84009000E-01    1.00000000E+00   1.00000000E+00 
SP   1    1.000000
   2.00878000E-01    1.00000000E+00   1.00000000E+00 
SP   1    1.000000
   6.39000000E-02    1.00000000E+00   1.00000000E+00 
SP   1    1.000000
   1.92469880E-02    1.00000000E+00   1.00000000E+00 
D    1    1.000000
   9.13000000E-01    1.00000000E+00 

10    0
S    1    1.000000
   6.29348000E+03    1.96979000E-03 
S    1    1.000000
   9.49044000E+02    1.49613000E-02 
S    1    1.000000
   2.18776000E+02    7.35006000E-02 
S    1    1.000000
   6.36916000E+01    2.48937000E-01 
S    1    1.000000
   1.88282000E+01    6.02460000E-01 
S    1    1.000000
   2.72023000E+00    2.56202000E-01 
SP   3    1.000000
   3.06331000E+01    1.11906000E-01   3.83119000E-02 
   7.02614000E+00    9.21666000E-01   2.37403000E-01 
   2.11205000E+00   -2.56919000E-03   8.17592000E-01 
SP   1    1.000000
   6.84009000E-01    1.00000000E+00   1.00000000E+00 
SP   1    1.000000
   2.00878000E-01    1.00000000E+00   1.00000000E+00 
SP   1    1.000000
   6.39000000E-02    1.00000000E+00   1.00000000E+00 
SP   1    1.000000
   1.92469880E-02    1.00000000E+00   1.00000000E+00 
D    1    1.000000
   9.13000000E-01    1.00000000E+00 

11    0
S    1    1.000000
   4.56324000E+03    1.96665000E-03 
S    1    1.000000
   6.82024000E+02    1.52306000E-02 
S    1    1.000000
   1.54973000E+02    7.61269000E-02 
S    1    1.000000
   4.44553000E+01    2.60801000E-01 
S    1    1.000000
   1.30290000E+01    6.16462000E-01 
S    1    1.000000
   1.82773000E+00    2.21006000E-01 
SP   3    1.000000
   2.09642000E+01    1.14660000E-01   4.02487000E-02 
   4.80331000E+00    9.19999000E-01   2.37594000E-01 
   1.45933000E+00   -3.03068000E-03   8.15854000E-01 
SP   1    1.000000
   4.83456000E-01    1.00000000E+00   1.00000000E+00 
SP   1    1.000000
   1.45585000E-01    1.00000000E+00   1.00000000E+00 
SP   1    1.000000
   4.38000000E-02    1.00000000E+00   1.00000000E+00 
SP   1    1.000000
   1.31927711E-02    1.00000000E+00   1.00000000E+00 
D    1    1.000000
   6.26000000E-01    1.00000000E+00 

12    0
S    3    1.000000
   3.38650000E+01    2.54938000E-02 
   5.09479000E+00    1.90373000E-01 
   1.15879000E+00    8.52161000E-01 
S    1    1.000000
   3.25840000E-01    1.00000000E+00 
S    1    1.000000
   1.02741000E-01    1.00000000E+00 
S    1    1.000000
   3.60000000E-02    1.00000000E+00 
P    1    1.000000
   7.50000000E-01    1.00000000E+00 

[MO]
Sym=X
Ene=0.041664
Spin=Alpha
Occup=1
1    -0.00858593839
2    -0.0428302543
3    -0.147049949
4    -0.3473765
5    -0.126668671
6    -0.465178787
7    0.0011113571
8    -0.000316742025
9    6.58354025e-16
10    -0.00168607288
11    -0.00107796496
12    5.54246851e-05
13    -2.57175547e-15
14    -0.0014522366
15    0.000311052033
16    -0.000844607451
17    8.93689318e-15
18    -0.000803530759
19    0.000708494411
20    -0.000517512291
21    -8.43989783e-14
22    0.000157826672
23    -7.76311995e-05
24    4.09128321e-05
25    7.28630238e-14
26    -0.000373137521
27    1.33096237e-16
28    0.000238144662
29    1.4017827e-15
30    -9.49608003e-05
31    -2.95723676e-05
32    -5.21937342e-05
33    -4.31009398e-05
34    8.85771513e-05
35    -4.71308897e-05
36    -1.52930203e-05
37    -1.45160055e-15
38    -0.000380801171
39    -0.000466849906
40    -0.00022903372
41    -0.000117378859
42    -4.34202756e-05
43    -0.000309925363
44    4.68288563e-17
45    -1.32374397e-05
46    5.54103134e-05
47    -0.000244156302
48    -0.000255099888
49    -5.56020303e-06
50    -4.00821531e-06
51    -1.42332363e-15
52    8.83905716e-07
53    6.8101259e-06
54    3.42041592e-05
55    0.000116554883
56    0.000284821318
57    0.000148830777
58    0.000345070448
59    5.99773503e-06
60    -2.16964849e-05
61    -6.62444269e-15
62    -0.000111273672
63    -2.06549358e-05
64    8.54190886e-05
65    -8.16779005e-15
66    -0.000214155564
67    0.000652810774
68    -0.000409591132
69    -1.31696225e-14
70    -0.000685496702
71    0.000326108009
72    -0.000570969652
73    -1.02068055e-13
74    -0.000499671556
75    -0.000170557654
76    -7.79668372e-06
77    -7.56401755e-14
78    1.78187414e-05
79    -9.33734346e-16
80    -4.44188007e-06
81    2.0830876e-15
82    4.42387272e-05
83    1.46353679e-08
84    8.50637436e-08
85    6.07062786e-07
86    1.3554435e-06
87    1.02573835e-05
88    2.78966029e-05
89    -9.08594206e-06
90    4.44962416e-06
91    -2.09329005e-06
92    -4.76349941e-15
93    -7.04009019e-05
94    -2.66611765e-05
95    2.58848278e-05
96    -7.0712037e-15
97    0.000309329311
98    0.000159312429
99    -8.85708324e-05
100    -1.46599029e-14
101    0.00105078578
102    0.000168063386
103    -0.000140575591
104    1.41400173e-15
105    0.00136137528
106    0.000273651943
107    -5.26496568e-05
108    2.83326181e-14
109    2.08810976e-06
110    1.36045474e-15
111    -8.49699306e-07
112    -1.40360751e-15
113    5.43790447e-06
114    -1.68025318e-05
115    -0.000130129152
116    -0.000648779503
117    -0.0022288469
118    -0.00525174933
119    -0.00185568192
120    -0.00708271806
121    4.27163472e-06
122    -3.18889499e-05
123    2.06979211e-15
124    -0.000129863309
125    1.92196582e-05
126    0.000134844244
127    3.80698181e-15
128    -0.000228064162
129    0.000187850719
130    9.88327229e-05
131    1.03076409e-14
132    0.000222324153
133    -0.000271700423
134    -0.000292047191
135    -9.41510773e-14
136    -3.06343158e-05
137    -0.000184589505
138    7.09844642e-05
139    4.15807149e-14
140    -4.21170964e-05
141    -4.14214742e-17
142    1.15330937e-05
143    1.96033001e-15
144    5.87362417e-05
145    -2.66391338e-08
146    -2.03389667e-07
147    -9.88555471e-07
148    -3.3898653e-06
149    -8.27212035e-06
150    -3.05283063e-06
151    -1.08053764e-05
152    2.28472038e-06
153    -9.31656479e-07
154    1.45962698e-15
155    -3.73755939e-06
156    1.68004694e-05
157    2.69685027e-05
158    6.37398437e-15
159    -0.000101619915
160    -6.20930265e-06
161    -2.07475869e-06
162    -1.49538219e-15
163    0.000127412021
164    5.0314767e-06
165    1.66495642e-05
166    2.68464811e-14
167    4.94422854e-05
168    -2.90059691e-05
169    4.55358704e-05
170    4.72721886e-15
171    -8.75604134e-06
172    -2.79827702e-16
173    3.08698581e-06
174    -1.11811604e-16
175    5.36649271e-06
176    3.4371507e-08
177    2.18560317e-07
178    1.3825404e-06
179    3.49743545e-06
180    1.93322109e-05
181    4.53679985e-05
182    -1.02852117e-05
183    -5.01600405e-07
184    -7.76578003e-06
185    -3.60992661e-15
186    -7.9037572e-05
187    -7.57626443e-06
188    3.59874031e-05
189    1.9647771e-15
190    -3.74309518e-05
191    5.46600235e-05
192    -1.51918239e-05
193    -2.24371395e-14
194    -7.66249357e-05
195    -0.000148715261
196    0.000547879104
197    6.94485577e-14
198    -0.000773630608
199    0.000276425817
200    0.000128422609
201    7.4229342e-14
202    -1.21874185e-06
203    3.03928877e-16
204    4.73972728e-06
205    1.84303211e-15
206    -9.73658341e-06
207    -9.09364302e-07
208    -7.09809287e-06
209    -3.34040183e-05
210    -0.000118088724
211    -0.000238471052
212    0.000118833409
213    -0.000451814285
214    -6.72305197e-05
215    4.06050625e-05
216    -5.2252633e-15
217    -0.000678542102
218    -0.000734744376
219    0.00044497803
220    2.70198448e-15
221    8.84338975e-05
222    1.44811859e-05
223    -8.64157356e-05
224    -2.83973867e-14
225    0.0012940153
226    0.000436982733
227    -0.000376228145
228    6.80332921e-14
229    0.000558702981
230    0.000318865385
231    -6.48606343e-05
232    3.1502714e-14
233    0.000328906705
234    -8.51563927e-16
235    0.000130347976
236    1.5819011e-16
237    -0.000184088086
238    -1.85765459e-05
239    -0.000143660467
240    -0.000717596256
241    -0.00245935273
242    -0.00584890577
243    -0.00221148637
244    -0.00764085149
245    0.000153456393
246    6.80380254e-05
247    1.36206677e-15
248    -0.000204153176
249    0.000238724991
250    0.000101133022
251    5.83048504e-15
252    0.000773466105
253    -0.000580947232
254    0.000259305821
255    -5.8691205e-15
256    -0.00131456875
257    4.58184376e-05
258    0.000593271829
259    1.06439878e-13
260    0.000206328726
261    0.000166718093
262    9.86234372e-05
263    -6.18300873e-14
264    -0.000165597884
265    1.86957976e-16
266    -4.9031256e-05
267    1.18517414e-15
268    -0.000146684394
269    -3.23402102e-05
270    -3.08727735e-05
271    0.000358131843
272    0.000272887836
273    9.03653905e-05
274    1.12646459e-05
275    1.8213528e-15
[5D]