[Molden Format]
[Atoms] (Angs)
  C      1    6     -0.00714236     -1.70213747     -0.00000000
  H      2    1     -2.06882847     -1.44022412      0.00000000
  H      3    1     -0.12337987     -2.77567521      0.00000000
  H      4    1      0.04651892      1.98813947     -0.00000000
  C      5    6     -1.21953563      0.40211669      0.00000000
  O      6    8     -2.25921553      1.03043814      0.00000000
  C      7    6      1.28797806      0.34644937     -0.00000000
  O      8    8      2.31273661      1.00537216     -0.00000000
  N      9    7      0.03446295      0.97739857     -0.00000000
  N     10    7     -1.17287765     -0.98229824      0.00000000
  C     11    6      1.20107039     -1.10433419     -0.00000000
  H     12    1      2.11220096     -1.67699125     -0.00000000
[GTO]
1    0
S    1    1.000000
   4.56324000E+03    1.96665000E-03 
S    1    1.000000
   6.82024000E+02    1.52306000E-02 
S    1    1.000000
   1.54973000E+02    7.61269000E-02 
S    1    1.000000
   4.44553000E+01    2.60801000E-01 
S    1    1.000000
   1.30290000E+01    6.16462000E-01 
S    1    1.000000
   1.82773000E+00    2.21006000E-01 
SP   3    1.000000
   2.09642000E+01    1.14660000E-01   4.02487000E-02 
   4.80331000E+00    9.19999000E-01   2.37594000E-01 
   1.45933000E+00   -3.03068000E-03   8.15854000E-01 
SP   1    1.000000
   4.83456000E-01    1.00000000E+00   1.00000000E+00 
SP   1    1.000000
   1.45585000E-01    1.00000000E+00   1.00000000E+00 
SP   1    1.000000
   4.38000000E-02    1.00000000E+00   1.00000000E+00 
SP   1    1.000000
   1.31927711E-02    1.00000000E+00   1.00000000E+00 
D    1    1.000000
   6.26000000E-01    1.00000000E+00 

2    0
S    3    1.000000
   3.38650000E+01    2.54938000E-02 
   5.09479000E+00    1.90373000E-01 
   1.15879000E+00    8.52161000E-01 
S    1    1.000000
   3.25840000E-01    1.00000000E+00 
S    1    1.000000
   1.02741000E-01    1.00000000E+00 
S    1    1.000000
   3.60000000E-02    1.00000000E+00 
P    1    1.000000
   7.50000000E-01    1.00000000E+00 

3    0
S    3    1.000000
   3.38650000E+01    2.54938000E-02 
   5.09479000E+00    1.90373000E-01 
   1.15879000E+00    8.52161000E-01 
S    1    1.000000
   3.25840000E-01    1.00000000E+00 
S    1    1.000000
   1.02741000E-01    1.00000000E+00 
S    1    1.000000
   3.60000000E-02    1.00000000E+00 
P    1    1.000000
   7.50000000E-01    1.00000000E+00 

4    0
S    3    1.000000
   3.38650000E+01    2.54938000E-02 
   5.09479000E+00    1.90373000E-01 
   1.15879000E+00    8.52161000E-01 
S    1    1.000000
   3.25840000E-01    1.00000000E+00 
S    1    1.000000
   1.02741000E-01    1.00000000E+00 
S    1    1.000000
   3.60000000E-02    1.00000000E+00 
P    1    1.000000
   7.50000000E-01    1.00000000E+00 

5    0
S    1    1.000000
   4.56324000E+03    1.96665000E-03 
S    1    1.000000
   6.82024000E+02    1.52306000E-02 
S    1    1.000000
   1.54973000E+02    7.61269000E-02 
S    1    1.000000
   4.44553000E+01    2.60801000E-01 
S    1    1.000000
   1.30290000E+01    6.16462000E-01 
S    1    1.000000
   1.82773000E+00    2.21006000E-01 
SP   3    1.000000
   2.09642000E+01    1.14660000E-01   4.02487000E-02 
   4.80331000E+00    9.19999000E-01   2.37594000E-01 
   1.45933000E+00   -3.03068000E-03   8.15854000E-01 
SP   1    1.000000
   4.83456000E-01    1.00000000E+00   1.00000000E+00 
SP   1    1.000000
   1.45585000E-01    1.00000000E+00   1.00000000E+00 
SP   1    1.000000
   4.38000000E-02    1.00000000E+00   1.00000000E+00 
SP   1    1.000000
   1.31927711E-02    1.00000000E+00   1.00000000E+00 
D    1    1.000000
   6.26000000E-01    1.00000000E+00 

6    0
S    1    1.000000
   8.58850000E+03    1.89515000E-03 
S    1    1.000000
   1.29723000E+03    1.43859000E-02 
S    1    1.000000
   2.99296000E+02    7.07320000E-02 
S    1    1.000000
   8.73771000E+01    2.40001000E-01 
S    1    1.000000
   2.56789000E+01    5.94797000E-01 
S    1    1.000000
   3.74004000E+00    2.80802000E-01 
SP   3    1.000000
   4.21175000E+01    1.13889000E-01   3.65114000E-02 
   9.62837000E+00    9.20811000E-01   2.37153000E-01 
   2.85332000E+00   -3.27447000E-03   8.19702000E-01 
SP   1    1.000000
   9.05661000E-01    1.00000000E+00   1.00000000E+00 
SP   1    1.000000
   2.55611000E-01    1.00000000E+00   1.00000000E+00 
SP   1    1.000000
   8.45000000E-02    1.00000000E+00   1.00000000E+00 
SP   1    1.000000
   2.54518072E-02    1.00000000E+00   1.00000000E+00 
D    1    1.000000
   1.29200000E+00    1.00000000E+00 

7    0
S    1    1.000000
   4.56324000E+03    1.96665000E-03 
S    1    1.000000
   6.82024000E+02    1.52306000E-02 
S    1    1.000000
   1.54973000E+02    7.61269000E-02 
S    1    1.000000
   4.44553000E+01    2.60801000E-01 
S    1    1.000000
   1.30290000E+01    6.16462000E-01 
S    1    1.000000
   1.82773000E+00    2.21006000E-01 
SP   3    1.000000
   2.09642000E+01    1.14660000E-01   4.02487000E-02 
   4.80331000E+00    9.19999000E-01   2.37594000E-01 
   1.45933000E+00   -3.03068000E-03   8.15854000E-01 
SP   1    1.000000
   4.83456000E-01    1.00000000E+00   1.00000000E+00 
SP   1    1.000000
   1.45585000E-01    1.00000000E+00   1.00000000E+00 
SP   1    1.000000
   4.38000000E-02    1.00000000E+00   1.00000000E+00 
SP   1    1.000000
   1.31927711E-02    1.00000000E+00   1.00000000E+00 
D    1    1.000000
   6.26000000E-01    1.00000000E+00 

8    0
S    1    1.000000
   8.58850000E+03    1.89515000E-03 
S    1    1.000000
   1.29723000E+03    1.43859000E-02 
S    1    1.000000
   2.99296000E+02    7.07320000E-02 
S    1    1.000000
   8.73771000E+01    2.40001000E-01 
S    1    1.000000
   2.56789000E+01    5.94797000E-01 
S    1    1.000000
   3.74004000E+00    2.80802000E-01 
SP   3    1.000000
   4.21175000E+01    1.13889000E-01   3.65114000E-02 
   9.62837000E+00    9.20811000E-01   2.37153000E-01 
   2.85332000E+00   -3.27447000E-03   8.19702000E-01 
SP   1    1.000000
   9.05661000E-01    1.00000000E+00   1.00000000E+00 
SP   1    1.000000
   2.55611000E-01    1.00000000E+00   1.00000000E+00 
SP   1    1.000000
   8.45000000E-02    1.00000000E+00   1.00000000E+00 
SP   1    1.000000
   2.54518072E-02    1.00000000E+00   1.00000000E+00 
D    1    1.000000
   1.29200000E+00    1.00000000E+00 

9    0
S    1    1.000000
   6.29348000E+03    1.96979000E-03 
S    1    1.000000
   9.49044000E+02    1.49613000E-02 
S    1    1.000000
   2.18776000E+02    7.35006000E-02 
S    1    1.000000
   6.36916000E+01    2.48937000E-01 
S    1    1.000000
   1.88282000E+01    6.02460000E-01 
S    1    1.000000
   2.72023000E+00    2.56202000E-01 
SP   3    1.000000
   3.06331000E+01    1.11906000E-01   3.83119000E-02 
   7.02614000E+00    9.21666000E-01   2.37403000E-01 
   2.11205000E+00   -2.56919000E-03   8.17592000E-01 
SP   1    1.000000
   6.84009000E-01    1.00000000E+00   1.00000000E+00 
SP   1    1.000000
   2.00878000E-01    1.00000000E+00   1.00000000E+00 
SP   1    1.000000
   6.39000000E-02    1.00000000E+00   1.00000000E+00 
SP   1    1.000000
   1.92469880E-02    1.00000000E+00   1.00000000E+00 
D    1    1.000000
   9.13000000E-01    1.00000000E+00 

10    0
S    1    1.000000
   6.29348000E+03    1.96979000E-03 
S    1    1.000000
   9.49044000E+02    1.49613000E-02 
S    1    1.000000
   2.18776000E+02    7.35006000E-02 
S    1    1.000000
   6.36916000E+01    2.48937000E-01 
S    1    1.000000
   1.88282000E+01    6.02460000E-01 
S    1    1.000000
   2.72023000E+00    2.56202000E-01 
SP   3    1.000000
   3.06331000E+01    1.11906000E-01   3.83119000E-02 
   7.02614000E+00    9.21666000E-01   2.37403000E-01 
   2.11205000E+00   -2.56919000E-03   8.17592000E-01 
SP   1    1.000000
   6.84009000E-01    1.00000000E+00   1.00000000E+00 
SP   1    1.000000
   2.00878000E-01    1.00000000E+00   1.00000000E+00 
SP   1    1.000000
   6.39000000E-02    1.00000000E+00   1.00000000E+00 
SP   1    1.000000
   1.92469880E-02    1.00000000E+00   1.00000000E+00 
D    1    1.000000
   9.13000000E-01    1.00000000E+00 

11    0
S    1    1.000000
   4.56324000E+03    1.96665000E-03 
S    1    1.000000
   6.82024000E+02    1.52306000E-02 
S    1    1.000000
   1.54973000E+02    7.61269000E-02 
S    1    1.000000
   4.44553000E+01    2.60801000E-01 
S    1    1.000000
   1.30290000E+01    6.16462000E-01 
S    1    1.000000
   1.82773000E+00    2.21006000E-01 
SP   3    1.000000
   2.09642000E+01    1.14660000E-01   4.02487000E-02 
   4.80331000E+00    9.19999000E-01   2.37594000E-01 
   1.45933000E+00   -3.03068000E-03   8.15854000E-01 
SP   1    1.000000
   4.83456000E-01    1.00000000E+00   1.00000000E+00 
SP   1    1.000000
   1.45585000E-01    1.00000000E+00   1.00000000E+00 
SP   1    1.000000
   4.38000000E-02    1.00000000E+00   1.00000000E+00 
SP   1    1.000000
   1.31927711E-02    1.00000000E+00   1.00000000E+00 
D    1    1.000000
   6.26000000E-01    1.00000000E+00 

12    0
S    3    1.000000
   3.38650000E+01    2.54938000E-02 
   5.09479000E+00    1.90373000E-01 
   1.15879000E+00    8.52161000E-01 
S    1    1.000000
   3.25840000E-01    1.00000000E+00 
S    1    1.000000
   1.02741000E-01    1.00000000E+00 
S    1    1.000000
   3.60000000E-02    1.00000000E+00 
P    1    1.000000
   7.50000000E-01    1.00000000E+00 

[MO]
Sym=X
Ene=0.928674
Spin=Alpha
Occup=1
1    -1.54626976e-06
2    -7.78326216e-06
3    -2.64718152e-05
4    -6.60980493e-05
5    -4.49336269e-05
6    -7.2723675e-05
7    1.55165738e-05
8    -7.89259031e-06
9    4.61597417e-16
10    5.12571888e-05
11    -7.87852516e-05
12    2.50345427e-05
13    2.37586562e-15
14    -0.000323467916
15    8.79588827e-05
16    -0.000143222927
17    -1.19616877e-16
18    0.00323544681
19    0.000493222585
20    0.00127912996
21    1.37417334e-14
22    0.000311260087
23    -0.000212473899
24    7.91347586e-05
25    4.94790278e-14
26    -5.59028806e-05
27    5.30289525e-16
28    1.61982164e-05
29    1.66436057e-17
30    -4.26781398e-07
31    3.27561599e-05
32    1.22685487e-05
33    2.62764027e-05
34    0.000106737132
35    3.82884258e-05
36    2.1854677e-05
37    5.56754495e-16
38    1.14671539e-05
39    4.94621738e-06
40    -2.27462924e-05
41    0.000866658901
42    -8.29494182e-06
43    1.04943801e-05
44    -1.99733672e-16
45    3.06830838e-05
46    4.70213083e-05
47    -0.000105627867
48    -4.84002577e-05
49    -6.122416e-06
50    -4.77765648e-05
51    7.07008064e-16
52    0.0011095693
53    0.00858970201
54    0.0428506309
55    0.147114541
56    0.347565397
57    0.126418237
58    0.465482385
59    0.000643625729
60    -0.000449464714
61    1.92940455e-15
62    0.00162765779
63    -0.000736256989
64    0.000482695149
65    -3.67339667e-16
66    0.00142890932
67    0.000374903442
68    -0.000206412354
69    9.21368601e-15
70    -0.000414141686
71    -0.000717041964
72    0.000473211686
73    -1.99538474e-14
74    -0.000733294904
75    -1.94765045e-05
76    0.000106910275
77    -3.49134164e-14
78    -0.000277842787
79    -3.95618406e-16
80    -0.000241987945
81    3.27496512e-16
82    0.00015825041
83    -3.82471847e-07
84    -2.81429991e-06
85    -1.46735395e-05
86    -4.71489586e-05
87    -0.000138852883
88    -0.000181286381
89    -0.000202309842
90    0.000211771768
91    -0.000128239137
92    4.25253972e-16
93    0.000595196539
94    0.000535199031
95    -0.000320754239
96    1.06378248e-15
97    -0.000256759845
98    -0.000239885441
99    0.000137786055
100    -7.34616632e-16
101    0.000148464551
102    0.0002845961
103    -0.000152699413
104    6.10838142e-16
105    -0.000895011002
106    -0.000144676585
107    0.000109834133
108    2.026635e-14
109    -0.000239554527
110    9.75330688e-17
111    -0.000116367657
112    5.24630693e-16
113    0.000126480245
114    -3.1723146e-07
115    -2.4376069e-06
116    -1.22880074e-05
117    -4.16979475e-05
118    -0.000103801826
119    -6.22201714e-05
120    -0.000118083905
121    1.79310917e-05
122    -2.77824992e-06
123    2.18162165e-15
124    4.44411243e-05
125    -5.22393971e-05
126    9.3752194e-06
127    5.14816958e-15
128    5.78130501e-05
129    0.00038886401
130    0.000130353763
131    1.3645799e-15
132    0.00333873992
133    -0.000433480391
134    -0.000850277219
135    4.53106051e-14
136    0.000588389667
137    -0.000130869567
138    -0.00012513464
139    1.25459289e-14
140    -9.76611361e-06
141    2.24158555e-16
142    4.56400532e-06
143    2.43343096e-16
144    3.87242663e-05
145    -1.6650135e-09
146    9.02516873e-10
147    -9.40578252e-08
148    4.8725421e-08
149    -3.41317501e-06
150    -1.3217411e-05
151    7.08843188e-06
152    1.48273083e-06
153    8.737315e-07
154    1.84098365e-15
155    3.47119523e-05
156    -2.17774363e-05
157    -1.60989129e-06
158    2.10226038e-15
159    -0.000135269259
160    6.33236099e-05
161    5.36336135e-05
162    6.66287415e-15
163    -0.000643018853
164    0.000218897368
165    0.000110896795
166    -5.75334204e-15
167    -7.19162041e-05
168    3.14251545e-05
169    0.000112799697
170    -1.43771473e-14
171    -2.88778522e-06
172    -3.9090605e-16
173    5.56837728e-07
174    -5.38928097e-16
175    5.42054784e-06
176    -3.05365348e-07
177    -2.19099412e-06
178    -1.18121214e-05
179    -3.64675816e-05
180    -0.000124320396
181    -0.000225444411
182    -8.83718032e-05
183    -7.35564372e-05
184    -4.39687069e-05
185    1.95597024e-15
186    0.000547821815
187    -0.000626471508
188    -0.000292756774
189    9.20581394e-16
190    -7.69065297e-05
191    0.00019166351
192    -1.60830718e-05
193    7.90276432e-15
194    -0.000377030314
195    0.000481664813
196    0.000262647198
197    -1.53071943e-14
198    1.25397856e-05
199    -0.000100667781
200    2.66475531e-05
201    6.36307397e-15
202    0.00022896375
203    -7.92620569e-18
204    -9.85999637e-05
205    1.87139513e-16
206    0.000207361368
207    -2.97580319e-07
208    -2.1263553e-06
209    -1.1532489e-05
210    -3.5365837e-05
211    -0.000122957332
212    -0.000227653212
213    -8.15186815e-05
214    7.13685597e-06
215    8.12098756e-05
216    3.95556999e-16
217    0.000548273269
218    -3.41903048e-05
219    0.000704038479
220    2.49945054e-15
221    -7.07200156e-05
222    6.0508708e-05
223    -0.000169451149
224    -2.78902618e-15
225    -0.000439464101
226    9.83719291e-05
227    -0.000234356785
228    5.98076406e-15
229    8.87002047e-05
230    -0.000141444994
231    0.000302777975
232    -3.59084892e-14
233    -2.71244717e-05
234    7.83555489e-18
235    -0.000101181244
236    3.28474795e-16
237    -0.000316885149
238    -4.60022092e-08
239    -3.29240218e-07
240    -1.83644242e-06
241    -5.55698016e-06
242    -2.0344944e-05
243    -3.77572929e-05
244    -1.60796597e-06
245    8.50261632e-06
246    -2.90018834e-06
247    1.87439817e-15
248    7.41929858e-05
249    -6.82181571e-05
250    1.84014564e-05
251    2.16406508e-15
252    0.000126549593
253    -0.000116231705
254    5.75492648e-05
255    7.20551954e-15
256    -0.00537832214
257    0.000899619916
258    -0.000563065592
259    -2.97757934e-14
260    -7.82999863e-05
261    7.77328655e-05
262    -3.86627995e-05
263    -4.28480282e-14
264    2.44046329e-05
265    5.70514409e-16
266    1.71081843e-06
267    -6.29509329e-17
268    2.43878027e-06
269    4.9378011e-06
270    5.23351745e-05
271    1.02821829e-05
272    -0.000106532239
273    -1.37932395e-05
274    7.27828875e-06
275    7.70085149e-16
[5D]