[Molden Format]
[Atoms] (Angs)
  C      1    6     -0.00714236     -1.70213747     -0.00000000
  H      2    1     -2.06882847     -1.44022412      0.00000000
  H      3    1     -0.12337987     -2.77567521      0.00000000
  H      4    1      0.04651892      1.98813947     -0.00000000
  C      5    6     -1.21953563      0.40211669      0.00000000
  O      6    8     -2.25921553      1.03043814      0.00000000
  C      7    6      1.28797806      0.34644937     -0.00000000
  O      8    8      2.31273661      1.00537216     -0.00000000
  N      9    7      0.03446295      0.97739857     -0.00000000
  N     10    7     -1.17287765     -0.98229824      0.00000000
  C     11    6      1.20107039     -1.10433419     -0.00000000
  H     12    1      2.11220096     -1.67699125     -0.00000000
[GTO]
1    0
S    1    1.000000
   4.56324000E+03    1.96665000E-03 
S    1    1.000000
   6.82024000E+02    1.52306000E-02 
S    1    1.000000
   1.54973000E+02    7.61269000E-02 
S    1    1.000000
   4.44553000E+01    2.60801000E-01 
S    1    1.000000
   1.30290000E+01    6.16462000E-01 
S    1    1.000000
   1.82773000E+00    2.21006000E-01 
SP   3    1.000000
   2.09642000E+01    1.14660000E-01   4.02487000E-02 
   4.80331000E+00    9.19999000E-01   2.37594000E-01 
   1.45933000E+00   -3.03068000E-03   8.15854000E-01 
SP   1    1.000000
   4.83456000E-01    1.00000000E+00   1.00000000E+00 
SP   1    1.000000
   1.45585000E-01    1.00000000E+00   1.00000000E+00 
SP   1    1.000000
   4.38000000E-02    1.00000000E+00   1.00000000E+00 
SP   1    1.000000
   1.31927711E-02    1.00000000E+00   1.00000000E+00 
D    1    1.000000
   6.26000000E-01    1.00000000E+00 

2    0
S    3    1.000000
   3.38650000E+01    2.54938000E-02 
   5.09479000E+00    1.90373000E-01 
   1.15879000E+00    8.52161000E-01 
S    1    1.000000
   3.25840000E-01    1.00000000E+00 
S    1    1.000000
   1.02741000E-01    1.00000000E+00 
S    1    1.000000
   3.60000000E-02    1.00000000E+00 
P    1    1.000000
   7.50000000E-01    1.00000000E+00 

3    0
S    3    1.000000
   3.38650000E+01    2.54938000E-02 
   5.09479000E+00    1.90373000E-01 
   1.15879000E+00    8.52161000E-01 
S    1    1.000000
   3.25840000E-01    1.00000000E+00 
S    1    1.000000
   1.02741000E-01    1.00000000E+00 
S    1    1.000000
   3.60000000E-02    1.00000000E+00 
P    1    1.000000
   7.50000000E-01    1.00000000E+00 

4    0
S    3    1.000000
   3.38650000E+01    2.54938000E-02 
   5.09479000E+00    1.90373000E-01 
   1.15879000E+00    8.52161000E-01 
S    1    1.000000
   3.25840000E-01    1.00000000E+00 
S    1    1.000000
   1.02741000E-01    1.00000000E+00 
S    1    1.000000
   3.60000000E-02    1.00000000E+00 
P    1    1.000000
   7.50000000E-01    1.00000000E+00 

5    0
S    1    1.000000
   4.56324000E+03    1.96665000E-03 
S    1    1.000000
   6.82024000E+02    1.52306000E-02 
S    1    1.000000
   1.54973000E+02    7.61269000E-02 
S    1    1.000000
   4.44553000E+01    2.60801000E-01 
S    1    1.000000
   1.30290000E+01    6.16462000E-01 
S    1    1.000000
   1.82773000E+00    2.21006000E-01 
SP   3    1.000000
   2.09642000E+01    1.14660000E-01   4.02487000E-02 
   4.80331000E+00    9.19999000E-01   2.37594000E-01 
   1.45933000E+00   -3.03068000E-03   8.15854000E-01 
SP   1    1.000000
   4.83456000E-01    1.00000000E+00   1.00000000E+00 
SP   1    1.000000
   1.45585000E-01    1.00000000E+00   1.00000000E+00 
SP   1    1.000000
   4.38000000E-02    1.00000000E+00   1.00000000E+00 
SP   1    1.000000
   1.31927711E-02    1.00000000E+00   1.00000000E+00 
D    1    1.000000
   6.26000000E-01    1.00000000E+00 

6    0
S    1    1.000000
   8.58850000E+03    1.89515000E-03 
S    1    1.000000
   1.29723000E+03    1.43859000E-02 
S    1    1.000000
   2.99296000E+02    7.07320000E-02 
S    1    1.000000
   8.73771000E+01    2.40001000E-01 
S    1    1.000000
   2.56789000E+01    5.94797000E-01 
S    1    1.000000
   3.74004000E+00    2.80802000E-01 
SP   3    1.000000
   4.21175000E+01    1.13889000E-01   3.65114000E-02 
   9.62837000E+00    9.20811000E-01   2.37153000E-01 
   2.85332000E+00   -3.27447000E-03   8.19702000E-01 
SP   1    1.000000
   9.05661000E-01    1.00000000E+00   1.00000000E+00 
SP   1    1.000000
   2.55611000E-01    1.00000000E+00   1.00000000E+00 
SP   1    1.000000
   8.45000000E-02    1.00000000E+00   1.00000000E+00 
SP   1    1.000000
   2.54518072E-02    1.00000000E+00   1.00000000E+00 
D    1    1.000000
   1.29200000E+00    1.00000000E+00 

7    0
S    1    1.000000
   4.56324000E+03    1.96665000E-03 
S    1    1.000000
   6.82024000E+02    1.52306000E-02 
S    1    1.000000
   1.54973000E+02    7.61269000E-02 
S    1    1.000000
   4.44553000E+01    2.60801000E-01 
S    1    1.000000
   1.30290000E+01    6.16462000E-01 
S    1    1.000000
   1.82773000E+00    2.21006000E-01 
SP   3    1.000000
   2.09642000E+01    1.14660000E-01   4.02487000E-02 
   4.80331000E+00    9.19999000E-01   2.37594000E-01 
   1.45933000E+00   -3.03068000E-03   8.15854000E-01 
SP   1    1.000000
   4.83456000E-01    1.00000000E+00   1.00000000E+00 
SP   1    1.000000
   1.45585000E-01    1.00000000E+00   1.00000000E+00 
SP   1    1.000000
   4.38000000E-02    1.00000000E+00   1.00000000E+00 
SP   1    1.000000
   1.31927711E-02    1.00000000E+00   1.00000000E+00 
D    1    1.000000
   6.26000000E-01    1.00000000E+00 

8    0
S    1    1.000000
   8.58850000E+03    1.89515000E-03 
S    1    1.000000
   1.29723000E+03    1.43859000E-02 
S    1    1.000000
   2.99296000E+02    7.07320000E-02 
S    1    1.000000
   8.73771000E+01    2.40001000E-01 
S    1    1.000000
   2.56789000E+01    5.94797000E-01 
S    1    1.000000
   3.74004000E+00    2.80802000E-01 
SP   3    1.000000
   4.21175000E+01    1.13889000E-01   3.65114000E-02 
   9.62837000E+00    9.20811000E-01   2.37153000E-01 
   2.85332000E+00   -3.27447000E-03   8.19702000E-01 
SP   1    1.000000
   9.05661000E-01    1.00000000E+00   1.00000000E+00 
SP   1    1.000000
   2.55611000E-01    1.00000000E+00   1.00000000E+00 
SP   1    1.000000
   8.45000000E-02    1.00000000E+00   1.00000000E+00 
SP   1    1.000000
   2.54518072E-02    1.00000000E+00   1.00000000E+00 
D    1    1.000000
   1.29200000E+00    1.00000000E+00 

9    0
S    1    1.000000
   6.29348000E+03    1.96979000E-03 
S    1    1.000000
   9.49044000E+02    1.49613000E-02 
S    1    1.000000
   2.18776000E+02    7.35006000E-02 
S    1    1.000000
   6.36916000E+01    2.48937000E-01 
S    1    1.000000
   1.88282000E+01    6.02460000E-01 
S    1    1.000000
   2.72023000E+00    2.56202000E-01 
SP   3    1.000000
   3.06331000E+01    1.11906000E-01   3.83119000E-02 
   7.02614000E+00    9.21666000E-01   2.37403000E-01 
   2.11205000E+00   -2.56919000E-03   8.17592000E-01 
SP   1    1.000000
   6.84009000E-01    1.00000000E+00   1.00000000E+00 
SP   1    1.000000
   2.00878000E-01    1.00000000E+00   1.00000000E+00 
SP   1    1.000000
   6.39000000E-02    1.00000000E+00   1.00000000E+00 
SP   1    1.000000
   1.92469880E-02    1.00000000E+00   1.00000000E+00 
D    1    1.000000
   9.13000000E-01    1.00000000E+00 

10    0
S    1    1.000000
   6.29348000E+03    1.96979000E-03 
S    1    1.000000
   9.49044000E+02    1.49613000E-02 
S    1    1.000000
   2.18776000E+02    7.35006000E-02 
S    1    1.000000
   6.36916000E+01    2.48937000E-01 
S    1    1.000000
   1.88282000E+01    6.02460000E-01 
S    1    1.000000
   2.72023000E+00    2.56202000E-01 
SP   3    1.000000
   3.06331000E+01    1.11906000E-01   3.83119000E-02 
   7.02614000E+00    9.21666000E-01   2.37403000E-01 
   2.11205000E+00   -2.56919000E-03   8.17592000E-01 
SP   1    1.000000
   6.84009000E-01    1.00000000E+00   1.00000000E+00 
SP   1    1.000000
   2.00878000E-01    1.00000000E+00   1.00000000E+00 
SP   1    1.000000
   6.39000000E-02    1.00000000E+00   1.00000000E+00 
SP   1    1.000000
   1.92469880E-02    1.00000000E+00   1.00000000E+00 
D    1    1.000000
   9.13000000E-01    1.00000000E+00 

11    0
S    1    1.000000
   4.56324000E+03    1.96665000E-03 
S    1    1.000000
   6.82024000E+02    1.52306000E-02 
S    1    1.000000
   1.54973000E+02    7.61269000E-02 
S    1    1.000000
   4.44553000E+01    2.60801000E-01 
S    1    1.000000
   1.30290000E+01    6.16462000E-01 
S    1    1.000000
   1.82773000E+00    2.21006000E-01 
SP   3    1.000000
   2.09642000E+01    1.14660000E-01   4.02487000E-02 
   4.80331000E+00    9.19999000E-01   2.37594000E-01 
   1.45933000E+00   -3.03068000E-03   8.15854000E-01 
SP   1    1.000000
   4.83456000E-01    1.00000000E+00   1.00000000E+00 
SP   1    1.000000
   1.45585000E-01    1.00000000E+00   1.00000000E+00 
SP   1    1.000000
   4.38000000E-02    1.00000000E+00   1.00000000E+00 
SP   1    1.000000
   1.31927711E-02    1.00000000E+00   1.00000000E+00 
D    1    1.000000
   6.26000000E-01    1.00000000E+00 

12    0
S    3    1.000000
   3.38650000E+01    2.54938000E-02 
   5.09479000E+00    1.90373000E-01 
   1.15879000E+00    8.52161000E-01 
S    1    1.000000
   3.25840000E-01    1.00000000E+00 
S    1    1.000000
   1.02741000E-01    1.00000000E+00 
S    1    1.000000
   3.60000000E-02    1.00000000E+00 
P    1    1.000000
   7.50000000E-01    1.00000000E+00 

[MO]
Sym=X
Ene=0.041448
Spin=Alpha
Occup=1
1    0.00858646434
2    0.0428328792
3    0.147058956
4    0.347397826
5    0.12667666
6    0.465207166
7    -0.00111133027
8    0.000316830915
9    -8.62609325e-16
10    0.00168566586
11    0.00107742943
12    -5.58899455e-05
13    2.28787692e-15
14    0.00145248525
15    -0.000310577002
16    0.000844045213
17    -8.55963086e-15
18    0.000813717257
19    -0.000708161028
20    0.000521182606
21    8.82402221e-14
22    -0.000157778012
23    7.70588689e-05
24    -3.98646643e-05
25    -6.58545176e-14
26    0.000372775009
27    -3.28295921e-16
28    -0.000238152536
29    6.51618527e-17
30    9.49147026e-05
31    2.95493226e-05
32    5.23955038e-05
33    4.21027107e-05
34    -9.00603422e-05
35    4.71527705e-05
36    1.53295288e-05
37    -2.17197369e-16
38    0.000380833872
39    0.000466455321
40    0.000229201289
41    0.000117924031
42    4.33399701e-05
43    0.000309860723
44    -1.34615949e-16
45    1.30862833e-05
46    -5.56366925e-05
47    0.000243466424
48    0.000256208652
49    5.61635865e-06
50    4.18300384e-06
51    6.85738389e-16
52    -2.54605313e-07
53    -1.93855121e-06
54    -9.90081691e-06
55    -3.31205619e-05
56    -8.76651262e-05
57    -7.69512489e-05
58    -8.11714605e-05
59    -5.54881721e-06
60    2.14487229e-05
61    2.28758103e-15
62    0.000111851775
63    1.99842346e-05
64    -8.51717662e-05
65    2.24538464e-16
66    0.000215156323
67    -0.000650346737
68    0.000408413791
69    4.86213816e-15
70    0.000682527668
71    -0.000325906035
72    0.00057253328
73    1.00982922e-13
74    0.000501591757
75    0.000171444799
76    8.13129467e-06
77    8.12652822e-14
78    -1.80063522e-05
79    4.94728421e-16
80    4.2953212e-06
81    -7.13859489e-16
82    -4.43680397e-05
83    -1.44949633e-08
84    -8.40024762e-08
85    -6.01913188e-07
86    -1.33798769e-06
87    -1.0210888e-05
88    -2.78874662e-05
89    9.09745599e-06
90    -4.32395168e-06
91    2.01657044e-06
92    1.53674366e-15
93    7.05678455e-05
94    2.68707766e-05
95    -2.6061456e-05
96    1.51160306e-15
97    -0.000308642108
98    -0.00015906056
99    8.83438354e-05
100    6.89833607e-15
101    -0.00104708454
102    -0.000166777784
103    0.000140202114
104    -7.80842837e-15
105    -0.00136092731
106    -0.000273987997
107    5.17098808e-05
108    -2.7396508e-14
109    -2.24873571e-06
110    -7.74264109e-16
111    7.77035475e-07
112    4.82937651e-16
113    -5.39187799e-06
114    1.14474947e-05
115    8.86732056e-05
116    0.00044197322
117    0.00151884413
118    0.0035743528
119    0.00124538982
120    0.00483618187
121    -6.89378297e-07
122    2.95122187e-05
123    1.36276747e-16
124    0.000122055389
125    -2.31388803e-05
126    -0.000133700367
127    3.03273417e-16
128    0.000220735275
129    -0.000186225312
130    -0.0001007297
131    -4.51332771e-15
132    -0.00020909722
133    0.000270754956
134    0.000279958242
135    1.01488602e-13
136    3.22059568e-05
137    0.00018594682
138    -7.12779855e-05
139    -3.37878406e-14
140    4.04987534e-05
141    -1.56606623e-16
142    -1.0304457e-05
143    -3.50578284e-16
144    -5.84923183e-05
145    2.05511814e-08
146    1.56585148e-07
147    7.63514958e-07
148    2.60972605e-06
149    6.45911305e-06
150    2.80808577e-06
151    8.1709667e-06
152    -1.28178625e-06
153    1.60251714e-06
154    4.96444208e-16
155    6.22189805e-07
156    -1.41237623e-05
157    -2.51804886e-05
158    -2.9147008e-15
159    0.000102824979
160    5.14735942e-06
161    1.55129642e-06
162    7.05206531e-15
163    -0.000126071457
164    -4.55803848e-06
165    -1.56730183e-05
166    -1.94740088e-14
167    -3.88956919e-05
168    2.61865258e-05
169    -4.57799736e-05
170    3.66885693e-15
171    7.5178019e-06
172    -6.16186937e-17
173    -2.5327709e-06
174    -2.63437138e-16
175    -5.91502113e-06
176    -4.85914646e-08
177    -3.27639235e-07
178    -1.9107317e-06
179    -5.3124005e-06
180    -2.35075889e-05
181    -4.62566789e-05
182    3.90389139e-06
183    2.45431468e-07
184    7.93109973e-06
185    2.40114646e-15
186    7.65425453e-05
187    3.8682354e-06
188    -3.45701071e-05
189    -4.08596469e-15
190    3.71528535e-05
191    -5.37782864e-05
192    1.59379386e-05
193    2.02165691e-14
194    8.24344041e-05
195    0.000153892063
196    -0.000547665672
197    -6.85369545e-14
198    0.000771586535
199    -0.000279614633
200    -0.000128850385
201    -6.82335356e-14
202    2.64448069e-06
203    -2.29936054e-16
204    -4.19963553e-06
205    -4.13045203e-16
206    8.8124657e-06
207    9.39766316e-07
208    7.32947839e-06
209    3.45383654e-05
210    0.000121936426
211    0.000247796576
212    -0.000114786928
213    0.000464685984
214    6.7276978e-05
215    -4.05529889e-05
216    3.00199351e-15
217    0.000678678635
218    0.000734636185
219    -0.000444651043
220    -6.7973001e-15
221    -8.8428294e-05
222    -1.43152225e-05
223    8.61574931e-05
224    2.28214871e-14
225    -0.00129480067
226    -0.000439114685
227    0.000375767171
228    -7.02943286e-14
229    -0.000562164154
230    -0.00031883862
231    6.3349156e-05
232    -2.7139912e-14
233    -0.000328897765
234    5.70845912e-17
235    -0.000130393092
236    1.63536323e-16
237    0.00018393826
238    1.86067676e-05
239    0.000143894645
240    0.000718763321
241    0.00246336678
242    0.00585835478
243    0.0022151097
244    0.00765374667
245    -0.000153459345
246    -6.8466925e-05
247    2.9693338e-16
248    0.000202851862
249    -0.000239141125
250    -0.000103498259
251    -2.72933865e-15
252    -0.000772420343
253    0.000580650018
254    -0.000257951164
255    1.07218972e-14
256    0.00128273198
257    -4.408817e-05
258    -0.000600492414
259    -9.99127532e-14
260    -0.000209380702
261    -0.000167144269
262    -0.00010038595
263    6.93985314e-14
264    0.00016545435
265    4.55831481e-16
266    4.91383892e-05
267    -6.64335975e-16
268    0.000148068494
269    3.22374734e-05
270    3.04804477e-05
271    -0.000357270802
272    -0.000274228923
273    -9.02119759e-05
274    -1.16041217e-05
275    -6.78402403e-16
[5D]