[Molden Format]
[Atoms] (Angs)
  C      1    6     -0.00714236     -1.70213747     -0.00000000
  H      2    1     -2.06882847     -1.44022412      0.00000000
  H      3    1     -0.12337987     -2.77567521      0.00000000
  H      4    1      0.04651892      1.98813947     -0.00000000
  C      5    6     -1.21953563      0.40211669      0.00000000
  O      6    8     -2.25921553      1.03043814      0.00000000
  C      7    6      1.28797806      0.34644937     -0.00000000
  O      8    8      2.31273661      1.00537216     -0.00000000
  N      9    7      0.03446295      0.97739857     -0.00000000
  N     10    7     -1.17287765     -0.98229824      0.00000000
  C     11    6      1.20107039     -1.10433419     -0.00000000
  H     12    1      2.11220096     -1.67699125     -0.00000000
[GTO]
1    0
S    1    1.000000
   4.56324000E+03    1.96665000E-03 
S    1    1.000000
   6.82024000E+02    1.52306000E-02 
S    1    1.000000
   1.54973000E+02    7.61269000E-02 
S    1    1.000000
   4.44553000E+01    2.60801000E-01 
S    1    1.000000
   1.30290000E+01    6.16462000E-01 
S    1    1.000000
   1.82773000E+00    2.21006000E-01 
SP   3    1.000000
   2.09642000E+01    1.14660000E-01   4.02487000E-02 
   4.80331000E+00    9.19999000E-01   2.37594000E-01 
   1.45933000E+00   -3.03068000E-03   8.15854000E-01 
SP   1    1.000000
   4.83456000E-01    1.00000000E+00   1.00000000E+00 
SP   1    1.000000
   1.45585000E-01    1.00000000E+00   1.00000000E+00 
SP   1    1.000000
   4.38000000E-02    1.00000000E+00   1.00000000E+00 
SP   1    1.000000
   1.31927711E-02    1.00000000E+00   1.00000000E+00 
D    1    1.000000
   6.26000000E-01    1.00000000E+00 

2    0
S    3    1.000000
   3.38650000E+01    2.54938000E-02 
   5.09479000E+00    1.90373000E-01 
   1.15879000E+00    8.52161000E-01 
S    1    1.000000
   3.25840000E-01    1.00000000E+00 
S    1    1.000000
   1.02741000E-01    1.00000000E+00 
S    1    1.000000
   3.60000000E-02    1.00000000E+00 
P    1    1.000000
   7.50000000E-01    1.00000000E+00 

3    0
S    3    1.000000
   3.38650000E+01    2.54938000E-02 
   5.09479000E+00    1.90373000E-01 
   1.15879000E+00    8.52161000E-01 
S    1    1.000000
   3.25840000E-01    1.00000000E+00 
S    1    1.000000
   1.02741000E-01    1.00000000E+00 
S    1    1.000000
   3.60000000E-02    1.00000000E+00 
P    1    1.000000
   7.50000000E-01    1.00000000E+00 

4    0
S    3    1.000000
   3.38650000E+01    2.54938000E-02 
   5.09479000E+00    1.90373000E-01 
   1.15879000E+00    8.52161000E-01 
S    1    1.000000
   3.25840000E-01    1.00000000E+00 
S    1    1.000000
   1.02741000E-01    1.00000000E+00 
S    1    1.000000
   3.60000000E-02    1.00000000E+00 
P    1    1.000000
   7.50000000E-01    1.00000000E+00 

5    0
S    1    1.000000
   4.56324000E+03    1.96665000E-03 
S    1    1.000000
   6.82024000E+02    1.52306000E-02 
S    1    1.000000
   1.54973000E+02    7.61269000E-02 
S    1    1.000000
   4.44553000E+01    2.60801000E-01 
S    1    1.000000
   1.30290000E+01    6.16462000E-01 
S    1    1.000000
   1.82773000E+00    2.21006000E-01 
SP   3    1.000000
   2.09642000E+01    1.14660000E-01   4.02487000E-02 
   4.80331000E+00    9.19999000E-01   2.37594000E-01 
   1.45933000E+00   -3.03068000E-03   8.15854000E-01 
SP   1    1.000000
   4.83456000E-01    1.00000000E+00   1.00000000E+00 
SP   1    1.000000
   1.45585000E-01    1.00000000E+00   1.00000000E+00 
SP   1    1.000000
   4.38000000E-02    1.00000000E+00   1.00000000E+00 
SP   1    1.000000
   1.31927711E-02    1.00000000E+00   1.00000000E+00 
D    1    1.000000
   6.26000000E-01    1.00000000E+00 

6    0
S    1    1.000000
   8.58850000E+03    1.89515000E-03 
S    1    1.000000
   1.29723000E+03    1.43859000E-02 
S    1    1.000000
   2.99296000E+02    7.07320000E-02 
S    1    1.000000
   8.73771000E+01    2.40001000E-01 
S    1    1.000000
   2.56789000E+01    5.94797000E-01 
S    1    1.000000
   3.74004000E+00    2.80802000E-01 
SP   3    1.000000
   4.21175000E+01    1.13889000E-01   3.65114000E-02 
   9.62837000E+00    9.20811000E-01   2.37153000E-01 
   2.85332000E+00   -3.27447000E-03   8.19702000E-01 
SP   1    1.000000
   9.05661000E-01    1.00000000E+00   1.00000000E+00 
SP   1    1.000000
   2.55611000E-01    1.00000000E+00   1.00000000E+00 
SP   1    1.000000
   8.45000000E-02    1.00000000E+00   1.00000000E+00 
SP   1    1.000000
   2.54518072E-02    1.00000000E+00   1.00000000E+00 
D    1    1.000000
   1.29200000E+00    1.00000000E+00 

7    0
S    1    1.000000
   4.56324000E+03    1.96665000E-03 
S    1    1.000000
   6.82024000E+02    1.52306000E-02 
S    1    1.000000
   1.54973000E+02    7.61269000E-02 
S    1    1.000000
   4.44553000E+01    2.60801000E-01 
S    1    1.000000
   1.30290000E+01    6.16462000E-01 
S    1    1.000000
   1.82773000E+00    2.21006000E-01 
SP   3    1.000000
   2.09642000E+01    1.14660000E-01   4.02487000E-02 
   4.80331000E+00    9.19999000E-01   2.37594000E-01 
   1.45933000E+00   -3.03068000E-03   8.15854000E-01 
SP   1    1.000000
   4.83456000E-01    1.00000000E+00   1.00000000E+00 
SP   1    1.000000
   1.45585000E-01    1.00000000E+00   1.00000000E+00 
SP   1    1.000000
   4.38000000E-02    1.00000000E+00   1.00000000E+00 
SP   1    1.000000
   1.31927711E-02    1.00000000E+00   1.00000000E+00 
D    1    1.000000
   6.26000000E-01    1.00000000E+00 

8    0
S    1    1.000000
   8.58850000E+03    1.89515000E-03 
S    1    1.000000
   1.29723000E+03    1.43859000E-02 
S    1    1.000000
   2.99296000E+02    7.07320000E-02 
S    1    1.000000
   8.73771000E+01    2.40001000E-01 
S    1    1.000000
   2.56789000E+01    5.94797000E-01 
S    1    1.000000
   3.74004000E+00    2.80802000E-01 
SP   3    1.000000
   4.21175000E+01    1.13889000E-01   3.65114000E-02 
   9.62837000E+00    9.20811000E-01   2.37153000E-01 
   2.85332000E+00   -3.27447000E-03   8.19702000E-01 
SP   1    1.000000
   9.05661000E-01    1.00000000E+00   1.00000000E+00 
SP   1    1.000000
   2.55611000E-01    1.00000000E+00   1.00000000E+00 
SP   1    1.000000
   8.45000000E-02    1.00000000E+00   1.00000000E+00 
SP   1    1.000000
   2.54518072E-02    1.00000000E+00   1.00000000E+00 
D    1    1.000000
   1.29200000E+00    1.00000000E+00 

9    0
S    1    1.000000
   6.29348000E+03    1.96979000E-03 
S    1    1.000000
   9.49044000E+02    1.49613000E-02 
S    1    1.000000
   2.18776000E+02    7.35006000E-02 
S    1    1.000000
   6.36916000E+01    2.48937000E-01 
S    1    1.000000
   1.88282000E+01    6.02460000E-01 
S    1    1.000000
   2.72023000E+00    2.56202000E-01 
SP   3    1.000000
   3.06331000E+01    1.11906000E-01   3.83119000E-02 
   7.02614000E+00    9.21666000E-01   2.37403000E-01 
   2.11205000E+00   -2.56919000E-03   8.17592000E-01 
SP   1    1.000000
   6.84009000E-01    1.00000000E+00   1.00000000E+00 
SP   1    1.000000
   2.00878000E-01    1.00000000E+00   1.00000000E+00 
SP   1    1.000000
   6.39000000E-02    1.00000000E+00   1.00000000E+00 
SP   1    1.000000
   1.92469880E-02    1.00000000E+00   1.00000000E+00 
D    1    1.000000
   9.13000000E-01    1.00000000E+00 

10    0
S    1    1.000000
   6.29348000E+03    1.96979000E-03 
S    1    1.000000
   9.49044000E+02    1.49613000E-02 
S    1    1.000000
   2.18776000E+02    7.35006000E-02 
S    1    1.000000
   6.36916000E+01    2.48937000E-01 
S    1    1.000000
   1.88282000E+01    6.02460000E-01 
S    1    1.000000
   2.72023000E+00    2.56202000E-01 
SP   3    1.000000
   3.06331000E+01    1.11906000E-01   3.83119000E-02 
   7.02614000E+00    9.21666000E-01   2.37403000E-01 
   2.11205000E+00   -2.56919000E-03   8.17592000E-01 
SP   1    1.000000
   6.84009000E-01    1.00000000E+00   1.00000000E+00 
SP   1    1.000000
   2.00878000E-01    1.00000000E+00   1.00000000E+00 
SP   1    1.000000
   6.39000000E-02    1.00000000E+00   1.00000000E+00 
SP   1    1.000000
   1.92469880E-02    1.00000000E+00   1.00000000E+00 
D    1    1.000000
   9.13000000E-01    1.00000000E+00 

11    0
S    1    1.000000
   4.56324000E+03    1.96665000E-03 
S    1    1.000000
   6.82024000E+02    1.52306000E-02 
S    1    1.000000
   1.54973000E+02    7.61269000E-02 
S    1    1.000000
   4.44553000E+01    2.60801000E-01 
S    1    1.000000
   1.30290000E+01    6.16462000E-01 
S    1    1.000000
   1.82773000E+00    2.21006000E-01 
SP   3    1.000000
   2.09642000E+01    1.14660000E-01   4.02487000E-02 
   4.80331000E+00    9.19999000E-01   2.37594000E-01 
   1.45933000E+00   -3.03068000E-03   8.15854000E-01 
SP   1    1.000000
   4.83456000E-01    1.00000000E+00   1.00000000E+00 
SP   1    1.000000
   1.45585000E-01    1.00000000E+00   1.00000000E+00 
SP   1    1.000000
   4.38000000E-02    1.00000000E+00   1.00000000E+00 
SP   1    1.000000
   1.31927711E-02    1.00000000E+00   1.00000000E+00 
D    1    1.000000
   6.26000000E-01    1.00000000E+00 

12    0
S    3    1.000000
   3.38650000E+01    2.54938000E-02 
   5.09479000E+00    1.90373000E-01 
   1.15879000E+00    8.52161000E-01 
S    1    1.000000
   3.25840000E-01    1.00000000E+00 
S    1    1.000000
   1.02741000E-01    1.00000000E+00 
S    1    1.000000
   3.60000000E-02    1.00000000E+00 
P    1    1.000000
   7.50000000E-01    1.00000000E+00 

[MO]
Sym=X
Ene=0.016524
Spin=Alpha
Occup=1
1    0.00858556394
2    0.0428283929
3    0.147043527
4    0.347361596
5    0.126663522
6    0.465157475
7    -0.00111008952
8    0.000317476238
9    -6.4851198e-16
10    0.00168832473
11    0.00108057946
12    -5.44532182e-05
13    2.61564442e-15
14    0.00144575793
15    -0.000311994748
16    0.00083867537
17    -8.96743391e-15
18    0.000806361721
19    -0.000709198181
20    0.000515077057
21    8.52418919e-14
22    -0.000159723533
23    7.64216897e-05
24    -4.01737361e-05
25    -7.26634754e-14
26    0.000374374757
27    -1.46115309e-16
28    -0.000238310184
29    -1.37380565e-15
30    9.63668818e-05
31    2.95198452e-05
32    5.31111347e-05
33    4.11588115e-05
34    -9.02955635e-05
35    4.72384418e-05
36    1.53201908e-05
37    1.43469106e-15
38    0.000381006228
39    0.000466216413
40    0.000226440336
41    0.000112486876
42    4.36442348e-05
43    0.000310184337
44    -4.01195633e-17
45    1.29225962e-05
46    -5.57539681e-05
47    0.000242685861
48    0.00025991353
49    5.75634523e-06
50    4.48234471e-06
51    1.39472175e-15
52    -8.70216143e-07
53    -6.70432548e-06
54    -3.3675138e-05
55    -0.000114743363
56    -0.000280489646
57    -0.000147005397
58    -0.000339481899
59    -5.79373896e-06
60    2.17379608e-05
61    6.56547341e-15
62    0.000110951572
63    2.01023727e-05
64    -8.55765031e-05
65    8.00075598e-15
66    0.00021015689
67    -0.000650428279
68    0.000408688852
69    1.30745413e-14
70    0.000678760942
71    -0.000326119483
72    0.000573657201
73    1.02895427e-13
74    0.000506095415
75    0.00017232118
76    8.8758416e-06
77    7.62508424e-14
78    -1.78521836e-05
79    9.17503191e-16
80    4.48220339e-06
81    -2.07869973e-15
82    -4.47779231e-05
83    -2.41566525e-08
84    -1.57591792e-07
85    -9.61972055e-07
86    -2.56599573e-06
87    -1.3228034e-05
88    -2.92219756e-05
89    4.73189961e-06
90    -4.46937497e-06
91    2.09598009e-06
92    4.71757281e-15
93    7.00636389e-05
94    2.65297592e-05
95    -2.59148652e-05
96    6.99561902e-15
97    -0.000307827131
98    -0.000158632351
99    8.79563846e-05
100    1.45677472e-14
101    -0.00104533148
102    -0.00016608363
103    0.000140447131
104    -1.64617825e-15
105    -0.00135977082
106    -0.000273903827
107    5.08501809e-05
108    -2.84255648e-14
109    -2.15944029e-06
110    -1.36011408e-15
111    8.3960991e-07
112    1.39121179e-15
113    -5.49073042e-06
114    2.85516108e-06
115    2.21559331e-05
116    0.000110144576
117    0.000379619993
118    0.000882831467
119    0.000265228176
120    0.00123146604
121    4.97673927e-06
122    2.51187103e-05
123    -2.06271016e-15
124    0.00011356544
125    -2.96299028e-05
126    -0.000136511914
127    -3.77429706e-15
128    0.000204343764
129    -0.000180343098
130    -9.7209476e-05
131    -1.03107338e-14
132    -0.000206677585
133    0.00027562527
134    0.000269594749
135    9.52081767e-14
136    3.16083946e-05
137    0.000187785061
138    -7.15244007e-05
139    -4.18140866e-14
140    3.83327903e-05
141    3.17835084e-17
142    -8.87506704e-06
143    -1.92398988e-15
144    -6.07289628e-05
145    2.98717654e-08
146    2.26948313e-07
147    1.11390024e-06
148    3.78598976e-06
149    9.49192026e-06
150    5.00712125e-06
151    1.27349649e-05
152    3.54203239e-07
153    2.83209285e-06
154    -1.44129326e-15
155    -3.78980671e-06
156    -1.01207235e-05
157    -2.26174512e-05
158    -6.33941155e-15
159    0.000103487579
160    4.27459749e-06
161    6.42719224e-07
162    1.58546641e-15
163    -0.000129088848
164    -3.25110594e-06
165    -1.39170588e-05
166    -2.69548556e-14
167    -3.52381307e-05
168    2.42718389e-05
169    -4.5569063e-05
170    -4.5359497e-15
171    5.74223383e-06
172    2.7710019e-16
173    -1.65908328e-06
174    1.09079565e-16
175    -6.9835867e-06
176    6.73373566e-08
177    5.53870918e-07
178    2.41781054e-06
179    9.3482189e-06
180    1.22504899e-05
181    -2.95004614e-05
182    5.29267106e-05
183    -2.5509944e-07
184    8.34494989e-06
185    3.59394555e-15
186    7.26445461e-05
187    -4.95230082e-07
188    -3.21414662e-05
189    -2.11622678e-15
190    3.88912099e-05
191    -5.40894991e-05
192    1.55282652e-05
193    2.2572916e-14
194    9.73767255e-05
195    0.000159577159
196    -0.000549919755
197    -7.02444858e-14
198    0.000773705553
199    -0.000280253127
200    -0.000131038713
201    -7.46717994e-14
202    4.33622471e-06
203    -3.00717671e-16
204    -3.21665792e-06
205    -1.82346455e-15
206    7.14797569e-06
207    1.0278377e-06
208    8.00002818e-06
209    3.78241822e-05
210    0.000133089009
211    0.000274768483
212    -0.000103153126
213    0.000502230307
214    6.71366129e-05
215    -4.05198737e-05
216    5.22462947e-15
217    0.00067855278
218    0.000735068222
219    -0.000445374837
220    -2.79864929e-15
221    -8.61132349e-05
222    -1.30009904e-05
223    8.73526849e-05
224    2.84753729e-14
225    -0.00128789817
226    -0.000439509749
227    0.000377245463
228    -6.86236484e-14
229    -0.000563558819
230    -0.000318224373
231    6.21677527e-05
232    -3.21369755e-14
233    -0.000328973021
234    8.29240111e-16
235    -0.000130376038
236    -1.50993578e-16
237    0.000184419179
238    2.68060094e-05
239    0.000207371372
240    0.00103540244
241    0.00355055428
242    0.00842645983
243    0.00315462476
244    0.0110918342
245    -0.000154784042
246    -6.74339912e-05
247    -1.32562549e-15
248    0.000214043935
249    -0.000239967003
250    -0.00010837414
251    -5.80158889e-15
252    -0.000757141848
253    0.000574412416
254    -0.00025137675
255    6.03130339e-15
256    0.00127336683
257    -5.00545607e-05
258    -0.00060367604
259    -1.07297949e-13
260    -0.000212094379
261    -0.000167216764
262    -0.000101527611
263    6.20973443e-14
264    0.000165650402
265    -1.89293262e-16
266    4.85963715e-05
267    -1.18218736e-15
268    0.00015086834
269    3.48430442e-05
270    3.30815266e-05
271    -0.000353761259
272    -0.000272725952
273    -9.18886732e-05
274    -1.10282033e-05
275    -1.7991255e-15
[5D]