[Molden Format]
[Atoms] (Angs)
  C      1    6     -0.00714236     -1.70213747     -0.00000000
  H      2    1     -2.06882847     -1.44022412      0.00000000
  H      3    1     -0.12337987     -2.77567521      0.00000000
  H      4    1      0.04651892      1.98813947     -0.00000000
  C      5    6     -1.21953563      0.40211669      0.00000000
  O      6    8     -2.25921553      1.03043814      0.00000000
  C      7    6      1.28797806      0.34644937     -0.00000000
  O      8    8      2.31273661      1.00537216     -0.00000000
  N      9    7      0.03446295      0.97739857     -0.00000000
  N     10    7     -1.17287765     -0.98229824      0.00000000
  C     11    6      1.20107039     -1.10433419     -0.00000000
  H     12    1      2.11220096     -1.67699125     -0.00000000
[GTO]
1    0
S    1    1.000000
   4.56324000E+03    1.96665000E-03 
S    1    1.000000
   6.82024000E+02    1.52306000E-02 
S    1    1.000000
   1.54973000E+02    7.61269000E-02 
S    1    1.000000
   4.44553000E+01    2.60801000E-01 
S    1    1.000000
   1.30290000E+01    6.16462000E-01 
S    1    1.000000
   1.82773000E+00    2.21006000E-01 
SP   3    1.000000
   2.09642000E+01    1.14660000E-01   4.02487000E-02 
   4.80331000E+00    9.19999000E-01   2.37594000E-01 
   1.45933000E+00   -3.03068000E-03   8.15854000E-01 
SP   1    1.000000
   4.83456000E-01    1.00000000E+00   1.00000000E+00 
SP   1    1.000000
   1.45585000E-01    1.00000000E+00   1.00000000E+00 
SP   1    1.000000
   4.38000000E-02    1.00000000E+00   1.00000000E+00 
SP   1    1.000000
   1.31927711E-02    1.00000000E+00   1.00000000E+00 
D    1    1.000000
   6.26000000E-01    1.00000000E+00 

2    0
S    3    1.000000
   3.38650000E+01    2.54938000E-02 
   5.09479000E+00    1.90373000E-01 
   1.15879000E+00    8.52161000E-01 
S    1    1.000000
   3.25840000E-01    1.00000000E+00 
S    1    1.000000
   1.02741000E-01    1.00000000E+00 
S    1    1.000000
   3.60000000E-02    1.00000000E+00 
P    1    1.000000
   7.50000000E-01    1.00000000E+00 

3    0
S    3    1.000000
   3.38650000E+01    2.54938000E-02 
   5.09479000E+00    1.90373000E-01 
   1.15879000E+00    8.52161000E-01 
S    1    1.000000
   3.25840000E-01    1.00000000E+00 
S    1    1.000000
   1.02741000E-01    1.00000000E+00 
S    1    1.000000
   3.60000000E-02    1.00000000E+00 
P    1    1.000000
   7.50000000E-01    1.00000000E+00 

4    0
S    3    1.000000
   3.38650000E+01    2.54938000E-02 
   5.09479000E+00    1.90373000E-01 
   1.15879000E+00    8.52161000E-01 
S    1    1.000000
   3.25840000E-01    1.00000000E+00 
S    1    1.000000
   1.02741000E-01    1.00000000E+00 
S    1    1.000000
   3.60000000E-02    1.00000000E+00 
P    1    1.000000
   7.50000000E-01    1.00000000E+00 

5    0
S    1    1.000000
   4.56324000E+03    1.96665000E-03 
S    1    1.000000
   6.82024000E+02    1.52306000E-02 
S    1    1.000000
   1.54973000E+02    7.61269000E-02 
S    1    1.000000
   4.44553000E+01    2.60801000E-01 
S    1    1.000000
   1.30290000E+01    6.16462000E-01 
S    1    1.000000
   1.82773000E+00    2.21006000E-01 
SP   3    1.000000
   2.09642000E+01    1.14660000E-01   4.02487000E-02 
   4.80331000E+00    9.19999000E-01   2.37594000E-01 
   1.45933000E+00   -3.03068000E-03   8.15854000E-01 
SP   1    1.000000
   4.83456000E-01    1.00000000E+00   1.00000000E+00 
SP   1    1.000000
   1.45585000E-01    1.00000000E+00   1.00000000E+00 
SP   1    1.000000
   4.38000000E-02    1.00000000E+00   1.00000000E+00 
SP   1    1.000000
   1.31927711E-02    1.00000000E+00   1.00000000E+00 
D    1    1.000000
   6.26000000E-01    1.00000000E+00 

6    0
S    1    1.000000
   8.58850000E+03    1.89515000E-03 
S    1    1.000000
   1.29723000E+03    1.43859000E-02 
S    1    1.000000
   2.99296000E+02    7.07320000E-02 
S    1    1.000000
   8.73771000E+01    2.40001000E-01 
S    1    1.000000
   2.56789000E+01    5.94797000E-01 
S    1    1.000000
   3.74004000E+00    2.80802000E-01 
SP   3    1.000000
   4.21175000E+01    1.13889000E-01   3.65114000E-02 
   9.62837000E+00    9.20811000E-01   2.37153000E-01 
   2.85332000E+00   -3.27447000E-03   8.19702000E-01 
SP   1    1.000000
   9.05661000E-01    1.00000000E+00   1.00000000E+00 
SP   1    1.000000
   2.55611000E-01    1.00000000E+00   1.00000000E+00 
SP   1    1.000000
   8.45000000E-02    1.00000000E+00   1.00000000E+00 
SP   1    1.000000
   2.54518072E-02    1.00000000E+00   1.00000000E+00 
D    1    1.000000
   1.29200000E+00    1.00000000E+00 

7    0
S    1    1.000000
   4.56324000E+03    1.96665000E-03 
S    1    1.000000
   6.82024000E+02    1.52306000E-02 
S    1    1.000000
   1.54973000E+02    7.61269000E-02 
S    1    1.000000
   4.44553000E+01    2.60801000E-01 
S    1    1.000000
   1.30290000E+01    6.16462000E-01 
S    1    1.000000
   1.82773000E+00    2.21006000E-01 
SP   3    1.000000
   2.09642000E+01    1.14660000E-01   4.02487000E-02 
   4.80331000E+00    9.19999000E-01   2.37594000E-01 
   1.45933000E+00   -3.03068000E-03   8.15854000E-01 
SP   1    1.000000
   4.83456000E-01    1.00000000E+00   1.00000000E+00 
SP   1    1.000000
   1.45585000E-01    1.00000000E+00   1.00000000E+00 
SP   1    1.000000
   4.38000000E-02    1.00000000E+00   1.00000000E+00 
SP   1    1.000000
   1.31927711E-02    1.00000000E+00   1.00000000E+00 
D    1    1.000000
   6.26000000E-01    1.00000000E+00 

8    0
S    1    1.000000
   8.58850000E+03    1.89515000E-03 
S    1    1.000000
   1.29723000E+03    1.43859000E-02 
S    1    1.000000
   2.99296000E+02    7.07320000E-02 
S    1    1.000000
   8.73771000E+01    2.40001000E-01 
S    1    1.000000
   2.56789000E+01    5.94797000E-01 
S    1    1.000000
   3.74004000E+00    2.80802000E-01 
SP   3    1.000000
   4.21175000E+01    1.13889000E-01   3.65114000E-02 
   9.62837000E+00    9.20811000E-01   2.37153000E-01 
   2.85332000E+00   -3.27447000E-03   8.19702000E-01 
SP   1    1.000000
   9.05661000E-01    1.00000000E+00   1.00000000E+00 
SP   1    1.000000
   2.55611000E-01    1.00000000E+00   1.00000000E+00 
SP   1    1.000000
   8.45000000E-02    1.00000000E+00   1.00000000E+00 
SP   1    1.000000
   2.54518072E-02    1.00000000E+00   1.00000000E+00 
D    1    1.000000
   1.29200000E+00    1.00000000E+00 

9    0
S    1    1.000000
   6.29348000E+03    1.96979000E-03 
S    1    1.000000
   9.49044000E+02    1.49613000E-02 
S    1    1.000000
   2.18776000E+02    7.35006000E-02 
S    1    1.000000
   6.36916000E+01    2.48937000E-01 
S    1    1.000000
   1.88282000E+01    6.02460000E-01 
S    1    1.000000
   2.72023000E+00    2.56202000E-01 
SP   3    1.000000
   3.06331000E+01    1.11906000E-01   3.83119000E-02 
   7.02614000E+00    9.21666000E-01   2.37403000E-01 
   2.11205000E+00   -2.56919000E-03   8.17592000E-01 
SP   1    1.000000
   6.84009000E-01    1.00000000E+00   1.00000000E+00 
SP   1    1.000000
   2.00878000E-01    1.00000000E+00   1.00000000E+00 
SP   1    1.000000
   6.39000000E-02    1.00000000E+00   1.00000000E+00 
SP   1    1.000000
   1.92469880E-02    1.00000000E+00   1.00000000E+00 
D    1    1.000000
   9.13000000E-01    1.00000000E+00 

10    0
S    1    1.000000
   6.29348000E+03    1.96979000E-03 
S    1    1.000000
   9.49044000E+02    1.49613000E-02 
S    1    1.000000
   2.18776000E+02    7.35006000E-02 
S    1    1.000000
   6.36916000E+01    2.48937000E-01 
S    1    1.000000
   1.88282000E+01    6.02460000E-01 
S    1    1.000000
   2.72023000E+00    2.56202000E-01 
SP   3    1.000000
   3.06331000E+01    1.11906000E-01   3.83119000E-02 
   7.02614000E+00    9.21666000E-01   2.37403000E-01 
   2.11205000E+00   -2.56919000E-03   8.17592000E-01 
SP   1    1.000000
   6.84009000E-01    1.00000000E+00   1.00000000E+00 
SP   1    1.000000
   2.00878000E-01    1.00000000E+00   1.00000000E+00 
SP   1    1.000000
   6.39000000E-02    1.00000000E+00   1.00000000E+00 
SP   1    1.000000
   1.92469880E-02    1.00000000E+00   1.00000000E+00 
D    1    1.000000
   9.13000000E-01    1.00000000E+00 

11    0
S    1    1.000000
   4.56324000E+03    1.96665000E-03 
S    1    1.000000
   6.82024000E+02    1.52306000E-02 
S    1    1.000000
   1.54973000E+02    7.61269000E-02 
S    1    1.000000
   4.44553000E+01    2.60801000E-01 
S    1    1.000000
   1.30290000E+01    6.16462000E-01 
S    1    1.000000
   1.82773000E+00    2.21006000E-01 
SP   3    1.000000
   2.09642000E+01    1.14660000E-01   4.02487000E-02 
   4.80331000E+00    9.19999000E-01   2.37594000E-01 
   1.45933000E+00   -3.03068000E-03   8.15854000E-01 
SP   1    1.000000
   4.83456000E-01    1.00000000E+00   1.00000000E+00 
SP   1    1.000000
   1.45585000E-01    1.00000000E+00   1.00000000E+00 
SP   1    1.000000
   4.38000000E-02    1.00000000E+00   1.00000000E+00 
SP   1    1.000000
   1.31927711E-02    1.00000000E+00   1.00000000E+00 
D    1    1.000000
   6.26000000E-01    1.00000000E+00 

12    0
S    3    1.000000
   3.38650000E+01    2.54938000E-02 
   5.09479000E+00    1.90373000E-01 
   1.15879000E+00    8.52161000E-01 
S    1    1.000000
   3.25840000E-01    1.00000000E+00 
S    1    1.000000
   1.02741000E-01    1.00000000E+00 
S    1    1.000000
   3.60000000E-02    1.00000000E+00 
P    1    1.000000
   7.50000000E-01    1.00000000E+00 

[MO]
Sym=X
Ene=4.9e-05
Spin=Alpha
Occup=1
1    0.00693097901
2    0.034574705
3    0.118705801
4    0.280421668
5    0.102279638
6    0.375515406
7    -0.000900189808
8    0.000252510191
9    -1.01874427e-15
10    0.00124758391
11    0.000722156664
12    -0.000131143045
13    3.76301248e-15
14    0.00126068006
15    -0.000145745745
16    0.000665213034
17    -9.52856712e-15
18    0.0026694742
19    -0.00042894972
20    0.00123111417
21    8.1045277e-14
22    -4.65170253e-05
23    -4.21926342e-05
24    0.000132287503
25    -5.08082935e-15
26    0.000213027988
27    -4.87339821e-16
28    -0.000185717018
29    -2.5724808e-16
30    4.41014191e-05
31    2.37095673e-05
32    5.86290203e-05
33    -8.6767087e-05
34    -0.000260474147
35    4.40409865e-05
36    2.03413718e-05
37    3.67905079e-16
38    0.000306799224
39    0.000320902782
40    0.000251611128
41    0.000401395456
42    1.71554445e-05
43    0.000233672498
44    -2.4044349e-16
45    -3.77436113e-06
46    -6.66953099e-05
47    9.68507213e-05
48    0.000288677552
49    9.02136335e-06
50    1.55133749e-05
51    9.72473283e-16
52    0.000266134114
53    0.00206027763
54    0.0102778613
55    0.035286079
56    0.0833627735
57    0.0303077728
58    0.111654773
59    0.000159667153
60    -9.00612066e-05
61    3.716443e-15
62    0.000428833784
63    -0.000191820232
64    4.88177264e-05
65    1.80880564e-15
66    0.000614399872
67    -0.00011775996
68    0.000125643133
69    9.32220343e-15
70    0.000151750359
71    -0.000322852383
72    0.000721753638
73    7.92835741e-14
74    0.000497624319
75    0.000246704318
76    6.09168533e-05
77    5.18146763e-14
78    -8.52055835e-05
79    4.65224157e-16
80    -5.67255586e-05
81    -1.1920992e-15
82    -2.11611057e-05
83    -4.82895961e-08
84    -3.31517452e-07
85    -1.9291269e-06
86    -5.5454511e-06
87    -2.24646967e-05
88    -4.98483081e-05
89    -2.10957434e-05
90    4.84769806e-05
91    -2.98414e-05
92    2.50883227e-15
93    0.000177445496
94    0.000137400008
95    -9.63334002e-05
96    3.17939927e-15
97    -0.000204044132
98    -0.000135413074
99    6.64736563e-05
100    8.93448452e-15
101    -0.000325507931
102    7.6420994e-05
103    3.21489139e-05
104    -6.11905773e-15
105    -0.00114904487
106    -0.000283981894
107    -5.85762044e-05
108    -7.08084642e-15
109    -6.18601961e-05
110    -1.09293153e-15
111    -2.8144616e-05
112    7.40796858e-16
113    2.3036833e-05
114    -0.000586545046
115    -0.00454068813
116    -0.0226518756
117    -0.0777667008
118    -0.183736004
119    -0.0668804675
120    -0.246035904
121    0.000401768811
122    -0.000231835157
123    -5.60618673e-16
124    -0.000837112388
125    -0.000462138293
126    9.7765935e-05
127    -1.76915924e-15
128    -0.000546751486
129    3.92204105e-05
130    -0.000380202988
131    -5.28883189e-15
132    0.00212728483
133    -3.11170274e-05
134    -0.00138701539
135    9.8252163e-14
136    0.000340853628
137    0.000292261886
138    -0.000120661327
139    -1.9588605e-14
140    -0.000158474148
141    -1.55112852e-16
142    0.000139032928
143    -9.06713933e-16
144    2.94405344e-05
145    -1.07091995e-05
146    -8.1523076e-05
147    -0.000399223786
148    -0.00136031414
149    -0.00335306257
150    -0.00151950661
151    -0.00482519118
152    0.000124766486
153    8.21833367e-05
154    -6.71901265e-16
155    -0.00039679004
156    0.000281472473
157    0.00017974413
158    -3.28970381e-15
159    0.000222892005
160    -0.00011495966
161    -4.56984916e-05
162    4.47657764e-15
163    1.1567424e-05
164    7.38648447e-05
165    0.000110896967
166    -2.35889569e-14
167    0.00129490725
168    -0.000321198143
169    -5.36695206e-05
170    1.52984552e-15
171    -0.000134896808
172    2.42902231e-17
173    6.09803008e-05
174    -8.40416019e-17
175    -6.13492744e-05
176    -6.80109363e-06
177    -5.18219944e-05
178    -0.000253608878
179    -0.000861884419
180    -0.00207353741
181    -0.00084318867
182    -0.00291043459
183    -3.75256881e-05
184    1.57609791e-05
185    2.77268411e-15
186    -0.00014656401
187    -0.000531856067
188    8.32167801e-05
189    -3.94576662e-15
190    -4.94174424e-05
191    0.00011401966
192    0.000120047982
193    1.97565296e-14
194    0.000560245028
195    0.000816538305
196    -0.000332084755
197    -6.58582727e-14
198    0.000318630591
199    -0.000639204754
200    -0.000122358311
201    -5.70669624e-14
202    0.000205566894
203    -1.50119442e-16
204    3.97440661e-05
205    -9.01020778e-16
206    -6.1453853e-05
207    -5.96054345e-06
208    -4.5236596e-05
209    -0.000222831376
210    -0.000752419446
211    -0.00185933652
212    -0.000995399431
213    -0.00249278438
214    6.19680873e-05
215    -1.32673833e-05
216    3.28060393e-15
217    0.000608153109
218    0.000558750802
219    -0.000190257305
220    -3.8165343e-15
221    -0.000116594358
222    -2.16551537e-06
223    -1.270435e-05
224    1.97555399e-14
225    -0.00134890602
226    -0.000632339909
227    0.000171298914
228    -5.35729439e-14
229    -0.000902114738
230    -0.000287655249
231    -9.35020088e-05
232    -5.48013692e-14
233    -0.000263829779
234    8.63569831e-17
235    -0.000126380038
236    7.85450751e-17
237    6.95819581e-05
238    -0.000119280356
239    -0.000923533587
240    -0.00460623042
241    -0.0158181476
242    -0.0373389116
243    -0.0135837637
244    -0.0501015436
245    -9.91629373e-05
246    -0.000131595289
247    -1.79928785e-16
248    -0.000197007143
249    -0.000243853394
250    -0.000325084809
251    -2.69273483e-15
252    -0.000708582035
253    0.000508618654
254    -0.000119458549
255    7.9294767e-15
256    -0.00401724881
257    0.000426786079
258    -0.00150927095
259    -9.54057607e-14
260    -0.000564313238
261    -0.000184590898
262    -0.00031575237
263    1.49305329e-14
264    0.000111936694
265    -1.01612632e-16
266    6.34654793e-05
267    -6.81773693e-16
268    0.000262545466
269    -3.18127281e-05
270    -6.62764037e-05
271    -0.000221740139
272    -0.000436622059
273    -2.42947497e-05
274    -6.4817886e-05
275    -6.65425891e-16
[5D]