[Molden Format]
[Atoms] (Angs)
  C      1    6     -0.00714236     -1.70213747     -0.00000000
  H      2    1     -2.06882847     -1.44022412      0.00000000
  H      3    1     -0.12337987     -2.77567521      0.00000000
  H      4    1      0.04651892      1.98813947     -0.00000000
  C      5    6     -1.21953563      0.40211669      0.00000000
  O      6    8     -2.25921553      1.03043814      0.00000000
  C      7    6      1.28797806      0.34644937     -0.00000000
  O      8    8      2.31273661      1.00537216     -0.00000000
  N      9    7      0.03446295      0.97739857     -0.00000000
  N     10    7     -1.17287765     -0.98229824      0.00000000
  C     11    6      1.20107039     -1.10433419     -0.00000000
  H     12    1      2.11220096     -1.67699125     -0.00000000
[GTO]
1    0
S    1    1.000000
   4.56324000E+03    1.96665000E-03 
S    1    1.000000
   6.82024000E+02    1.52306000E-02 
S    1    1.000000
   1.54973000E+02    7.61269000E-02 
S    1    1.000000
   4.44553000E+01    2.60801000E-01 
S    1    1.000000
   1.30290000E+01    6.16462000E-01 
S    1    1.000000
   1.82773000E+00    2.21006000E-01 
SP   3    1.000000
   2.09642000E+01    1.14660000E-01   4.02487000E-02 
   4.80331000E+00    9.19999000E-01   2.37594000E-01 
   1.45933000E+00   -3.03068000E-03   8.15854000E-01 
SP   1    1.000000
   4.83456000E-01    1.00000000E+00   1.00000000E+00 
SP   1    1.000000
   1.45585000E-01    1.00000000E+00   1.00000000E+00 
SP   1    1.000000
   4.38000000E-02    1.00000000E+00   1.00000000E+00 
SP   1    1.000000
   1.31927711E-02    1.00000000E+00   1.00000000E+00 
D    1    1.000000
   6.26000000E-01    1.00000000E+00 

2    0
S    3    1.000000
   3.38650000E+01    2.54938000E-02 
   5.09479000E+00    1.90373000E-01 
   1.15879000E+00    8.52161000E-01 
S    1    1.000000
   3.25840000E-01    1.00000000E+00 
S    1    1.000000
   1.02741000E-01    1.00000000E+00 
S    1    1.000000
   3.60000000E-02    1.00000000E+00 
P    1    1.000000
   7.50000000E-01    1.00000000E+00 

3    0
S    3    1.000000
   3.38650000E+01    2.54938000E-02 
   5.09479000E+00    1.90373000E-01 
   1.15879000E+00    8.52161000E-01 
S    1    1.000000
   3.25840000E-01    1.00000000E+00 
S    1    1.000000
   1.02741000E-01    1.00000000E+00 
S    1    1.000000
   3.60000000E-02    1.00000000E+00 
P    1    1.000000
   7.50000000E-01    1.00000000E+00 

4    0
S    3    1.000000
   3.38650000E+01    2.54938000E-02 
   5.09479000E+00    1.90373000E-01 
   1.15879000E+00    8.52161000E-01 
S    1    1.000000
   3.25840000E-01    1.00000000E+00 
S    1    1.000000
   1.02741000E-01    1.00000000E+00 
S    1    1.000000
   3.60000000E-02    1.00000000E+00 
P    1    1.000000
   7.50000000E-01    1.00000000E+00 

5    0
S    1    1.000000
   4.56324000E+03    1.96665000E-03 
S    1    1.000000
   6.82024000E+02    1.52306000E-02 
S    1    1.000000
   1.54973000E+02    7.61269000E-02 
S    1    1.000000
   4.44553000E+01    2.60801000E-01 
S    1    1.000000
   1.30290000E+01    6.16462000E-01 
S    1    1.000000
   1.82773000E+00    2.21006000E-01 
SP   3    1.000000
   2.09642000E+01    1.14660000E-01   4.02487000E-02 
   4.80331000E+00    9.19999000E-01   2.37594000E-01 
   1.45933000E+00   -3.03068000E-03   8.15854000E-01 
SP   1    1.000000
   4.83456000E-01    1.00000000E+00   1.00000000E+00 
SP   1    1.000000
   1.45585000E-01    1.00000000E+00   1.00000000E+00 
SP   1    1.000000
   4.38000000E-02    1.00000000E+00   1.00000000E+00 
SP   1    1.000000
   1.31927711E-02    1.00000000E+00   1.00000000E+00 
D    1    1.000000
   6.26000000E-01    1.00000000E+00 

6    0
S    1    1.000000
   8.58850000E+03    1.89515000E-03 
S    1    1.000000
   1.29723000E+03    1.43859000E-02 
S    1    1.000000
   2.99296000E+02    7.07320000E-02 
S    1    1.000000
   8.73771000E+01    2.40001000E-01 
S    1    1.000000
   2.56789000E+01    5.94797000E-01 
S    1    1.000000
   3.74004000E+00    2.80802000E-01 
SP   3    1.000000
   4.21175000E+01    1.13889000E-01   3.65114000E-02 
   9.62837000E+00    9.20811000E-01   2.37153000E-01 
   2.85332000E+00   -3.27447000E-03   8.19702000E-01 
SP   1    1.000000
   9.05661000E-01    1.00000000E+00   1.00000000E+00 
SP   1    1.000000
   2.55611000E-01    1.00000000E+00   1.00000000E+00 
SP   1    1.000000
   8.45000000E-02    1.00000000E+00   1.00000000E+00 
SP   1    1.000000
   2.54518072E-02    1.00000000E+00   1.00000000E+00 
D    1    1.000000
   1.29200000E+00    1.00000000E+00 

7    0
S    1    1.000000
   4.56324000E+03    1.96665000E-03 
S    1    1.000000
   6.82024000E+02    1.52306000E-02 
S    1    1.000000
   1.54973000E+02    7.61269000E-02 
S    1    1.000000
   4.44553000E+01    2.60801000E-01 
S    1    1.000000
   1.30290000E+01    6.16462000E-01 
S    1    1.000000
   1.82773000E+00    2.21006000E-01 
SP   3    1.000000
   2.09642000E+01    1.14660000E-01   4.02487000E-02 
   4.80331000E+00    9.19999000E-01   2.37594000E-01 
   1.45933000E+00   -3.03068000E-03   8.15854000E-01 
SP   1    1.000000
   4.83456000E-01    1.00000000E+00   1.00000000E+00 
SP   1    1.000000
   1.45585000E-01    1.00000000E+00   1.00000000E+00 
SP   1    1.000000
   4.38000000E-02    1.00000000E+00   1.00000000E+00 
SP   1    1.000000
   1.31927711E-02    1.00000000E+00   1.00000000E+00 
D    1    1.000000
   6.26000000E-01    1.00000000E+00 

8    0
S    1    1.000000
   8.58850000E+03    1.89515000E-03 
S    1    1.000000
   1.29723000E+03    1.43859000E-02 
S    1    1.000000
   2.99296000E+02    7.07320000E-02 
S    1    1.000000
   8.73771000E+01    2.40001000E-01 
S    1    1.000000
   2.56789000E+01    5.94797000E-01 
S    1    1.000000
   3.74004000E+00    2.80802000E-01 
SP   3    1.000000
   4.21175000E+01    1.13889000E-01   3.65114000E-02 
   9.62837000E+00    9.20811000E-01   2.37153000E-01 
   2.85332000E+00   -3.27447000E-03   8.19702000E-01 
SP   1    1.000000
   9.05661000E-01    1.00000000E+00   1.00000000E+00 
SP   1    1.000000
   2.55611000E-01    1.00000000E+00   1.00000000E+00 
SP   1    1.000000
   8.45000000E-02    1.00000000E+00   1.00000000E+00 
SP   1    1.000000
   2.54518072E-02    1.00000000E+00   1.00000000E+00 
D    1    1.000000
   1.29200000E+00    1.00000000E+00 

9    0
S    1    1.000000
   6.29348000E+03    1.96979000E-03 
S    1    1.000000
   9.49044000E+02    1.49613000E-02 
S    1    1.000000
   2.18776000E+02    7.35006000E-02 
S    1    1.000000
   6.36916000E+01    2.48937000E-01 
S    1    1.000000
   1.88282000E+01    6.02460000E-01 
S    1    1.000000
   2.72023000E+00    2.56202000E-01 
SP   3    1.000000
   3.06331000E+01    1.11906000E-01   3.83119000E-02 
   7.02614000E+00    9.21666000E-01   2.37403000E-01 
   2.11205000E+00   -2.56919000E-03   8.17592000E-01 
SP   1    1.000000
   6.84009000E-01    1.00000000E+00   1.00000000E+00 
SP   1    1.000000
   2.00878000E-01    1.00000000E+00   1.00000000E+00 
SP   1    1.000000
   6.39000000E-02    1.00000000E+00   1.00000000E+00 
SP   1    1.000000
   1.92469880E-02    1.00000000E+00   1.00000000E+00 
D    1    1.000000
   9.13000000E-01    1.00000000E+00 

10    0
S    1    1.000000
   6.29348000E+03    1.96979000E-03 
S    1    1.000000
   9.49044000E+02    1.49613000E-02 
S    1    1.000000
   2.18776000E+02    7.35006000E-02 
S    1    1.000000
   6.36916000E+01    2.48937000E-01 
S    1    1.000000
   1.88282000E+01    6.02460000E-01 
S    1    1.000000
   2.72023000E+00    2.56202000E-01 
SP   3    1.000000
   3.06331000E+01    1.11906000E-01   3.83119000E-02 
   7.02614000E+00    9.21666000E-01   2.37403000E-01 
   2.11205000E+00   -2.56919000E-03   8.17592000E-01 
SP   1    1.000000
   6.84009000E-01    1.00000000E+00   1.00000000E+00 
SP   1    1.000000
   2.00878000E-01    1.00000000E+00   1.00000000E+00 
SP   1    1.000000
   6.39000000E-02    1.00000000E+00   1.00000000E+00 
SP   1    1.000000
   1.92469880E-02    1.00000000E+00   1.00000000E+00 
D    1    1.000000
   9.13000000E-01    1.00000000E+00 

11    0
S    1    1.000000
   4.56324000E+03    1.96665000E-03 
S    1    1.000000
   6.82024000E+02    1.52306000E-02 
S    1    1.000000
   1.54973000E+02    7.61269000E-02 
S    1    1.000000
   4.44553000E+01    2.60801000E-01 
S    1    1.000000
   1.30290000E+01    6.16462000E-01 
S    1    1.000000
   1.82773000E+00    2.21006000E-01 
SP   3    1.000000
   2.09642000E+01    1.14660000E-01   4.02487000E-02 
   4.80331000E+00    9.19999000E-01   2.37594000E-01 
   1.45933000E+00   -3.03068000E-03   8.15854000E-01 
SP   1    1.000000
   4.83456000E-01    1.00000000E+00   1.00000000E+00 
SP   1    1.000000
   1.45585000E-01    1.00000000E+00   1.00000000E+00 
SP   1    1.000000
   4.38000000E-02    1.00000000E+00   1.00000000E+00 
SP   1    1.000000
   1.31927711E-02    1.00000000E+00   1.00000000E+00 
D    1    1.000000
   6.26000000E-01    1.00000000E+00 

12    0
S    3    1.000000
   3.38650000E+01    2.54938000E-02 
   5.09479000E+00    1.90373000E-01 
   1.15879000E+00    8.52161000E-01 
S    1    1.000000
   3.25840000E-01    1.00000000E+00 
S    1    1.000000
   1.02741000E-01    1.00000000E+00 
S    1    1.000000
   3.60000000E-02    1.00000000E+00 
P    1    1.000000
   7.50000000E-01    1.00000000E+00 

[MO]
Sym=X
Ene=0.922901
Spin=Alpha
Occup=1
1    0.000102654961
2    0.000511664587
3    0.00175916615
4    0.00413716858
5    0.00154831391
6    0.00565813205
7    -0.000148849864
8    -7.18463068e-05
9    -2.54326775e-15
10    -0.00048497366
11    -0.000547474269
12    -0.000299148386
13    -2.18625377e-15
14    0.00101274203
15    0.000285105049
16    0.000624575381
17    -3.57405922e-15
18    0.0025739539
19    0.000126214028
20    0.00137455103
21    -6.24406463e-14
22    0.000219540554
23    -1.49382953e-06
24    0.000257761503
25    6.54629726e-14
26    -0.000292055534
27    2.97557343e-16
28    2.01040889e-05
29    -1.65196373e-15
30    -0.000208542912
31    -6.67216578e-06
32    -5.67489237e-05
33    -9.60616045e-05
34    -0.000313204985
35    -1.47579539e-05
36    4.88977698e-06
37    3.37202164e-16
38    -2.44817741e-05
39    -6.08905885e-05
40    0.000412786659
41    0.000691459158
42    -5.79730538e-05
43    -6.46998886e-05
44    -1.20263168e-15
45    -1.26416615e-05
46    -4.00468968e-05
47    -2.33594545e-05
48    -0.000253547201
49    -5.80902989e-06
50    4.58341146e-06
51    2.59750276e-15
52    -3.58251607e-08
53    -3.02193631e-07
54    -1.32810371e-06
55    -5.25784172e-06
56    -5.87514779e-06
57    2.32578182e-05
58    -3.08898933e-05
59    3.88289497e-06
60    -4.10089303e-06
61    3.98688892e-15
62    -7.15910074e-05
63    -9.80709324e-06
64    1.45812603e-05
65    1.08571219e-14
66    0.000607412768
67    0.000480977271
68    -0.000261079014
69    6.68038048e-15
70    -8.01970131e-05
71    0.000203865672
72    9.1322004e-05
73    -7.65500084e-14
74    -8.22456834e-05
75    7.20294e-05
76    -4.5829583e-05
77    -6.48878221e-14
78    -3.68368246e-06
79    1.66947739e-15
80    -9.48193325e-06
81    -4.67994967e-16
82    -1.64393118e-06
83    5.47328752e-10
84    -3.81035483e-09
85    3.87497694e-08
86    -8.28010545e-08
87    1.90632168e-06
88    8.02923525e-06
89    -4.67505485e-06
90    2.58498397e-06
91    -6.7857126e-07
92    3.51827924e-15
93    -2.08770838e-05
94    -1.30763775e-05
95    4.93821655e-06
96    5.00546932e-15
97    9.70317214e-05
98    4.62877228e-05
99    -2.49256014e-05
100    7.926571e-15
101    0.00054611709
102    0.000131285564
103    -8.61164638e-05
104    1.49534087e-14
105    0.000109533704
106    -5.54776695e-05
107    -0.000107656994
108    3.12932606e-14
109    3.91582451e-07
110    -4.84560347e-16
111    -1.18175209e-06
112    7.3466176e-16
113    -1.19667399e-06
114    4.40446264e-06
115    3.40709026e-05
116    0.000170257949
117    0.000584050029
118    0.00139190651
119    0.000633293211
120    0.00185422923
121    3.85828011e-06
122    8.15601563e-05
123    -1.80459581e-17
124    -0.000548333945
125    3.84410169e-05
126    0.000634040976
127    -4.14012734e-15
128    0.000617532268
129    -0.000522398432
130    -0.000917987357
131    3.79160363e-15
132    0.00186551844
133    -0.000785483642
134    -0.00105439132
135    -7.93653667e-14
136    0.000309511386
137    7.00707285e-05
138    -1.83423714e-06
139    3.93754565e-14
140    -5.73256659e-05
141    8.72210258e-16
142    7.16965075e-05
143    -2.64177883e-15
144    0.000352685702
145    -6.07363829e-09
146    -8.23195895e-08
147    -1.48327302e-07
148    -1.46646297e-06
149    6.0863011e-06
150    3.51218351e-05
151    -2.76182589e-05
152    -8.3278911e-06
153    -2.39782164e-05
154    -1.95095593e-15
155    -7.1551471e-05
156    4.3153303e-05
157    4.16615493e-05
158    -1.08052066e-15
159    0.000196926682
160    -0.000125742657
161    -1.51181052e-06
162    -6.62536112e-15
163    0.000837893155
164    -0.000119106881
165    -4.88066634e-05
166    5.20794319e-15
167    0.00182068038
168    -0.000361927247
169    -0.000103865006
170    -5.02658366e-15
171    -2.74015836e-05
172    9.3148325e-17
173    1.2165398e-06
174    1.80794911e-16
175    2.53074164e-05
176    -8.66739098e-09
177    -1.09552983e-07
178    -2.28647754e-07
179    -1.96926818e-06
180    6.44819303e-06
181    4.11102754e-05
182    -3.24251916e-05
183    2.41208879e-05
184    -1.42253723e-05
185    1.0611239e-15
186    -4.80698095e-05
187    -8.62375421e-05
188    3.70441164e-05
189    1.05759212e-14
190    -0.000289244122
191    0.000195289928
192    0.000220949792
193    -1.16321718e-14
194    -0.000660556913
195    0.000253985624
196    0.00029764983
197    6.21129183e-14
198    -0.000721425037
199    -0.000591891728
200    0.00019458131
201    4.0199968e-14
202    3.40922966e-05
203    -1.46204839e-16
204    4.23993633e-06
205    -1.49321299e-15
206    -1.58429938e-05
207    -1.27022674e-08
208    -1.43593453e-07
209    -3.71689795e-07
210    -2.5537413e-06
211    5.74315504e-06
212    4.16997172e-05
213    -3.56582539e-05
214    2.75157372e-05
215    -9.02839145e-06
216    -1.0972094e-15
217    -5.07928196e-05
218    -8.72691714e-05
219    3.78532104e-05
220    6.36502488e-15
221    -0.000301924545
222    -0.000155834621
223    -0.000188490736
224    -1.01922408e-14
225    -0.000998390444
226    -0.000423573391
227    -0.000261910574
228    5.67154173e-14
229    -0.000570881053
230    -4.92548965e-05
231    -0.000224271976
232    1.09168509e-14
233    2.29348313e-05
234    1.40276521e-15
235    1.02377839e-05
236    -6.28554331e-16
237    -3.82673516e-05
238    -0.0011090591
239    -0.00858604856
240    -0.0428297551
241    -0.147055469
242    -0.347374328
243    -0.127043124
244    -0.465000357
245    0.000180360822
246    -0.000232435159
247    -3.55340775e-15
248    -0.00182146152
249    3.87571438e-05
250    0.000148300135
251    -1.61263077e-15
252    -0.0018696344
253    0.00080167766
254    -0.000609506317
255    -1.52367871e-14
256    -0.00460275197
257    0.0010148794
258    -0.00101725874
259    7.08912436e-14
260    -0.000265718503
261    -9.75146882e-05
262    -0.000223504966
263    -8.4062894e-14
264    -6.52971061e-05
265    -1.98045242e-17
266    9.58458603e-05
267    1.91348725e-16
268    -8.31986785e-05
269    -0.00037810208
270    -0.000450194833
271    -0.000289082664
272    -0.000474466333
273    0.000265487809
274    -0.000153342761
275    -1.57617862e-15
[5D]