[Molden Format]
[Atoms] (Angs)
  C      1    6     -0.00714236     -1.70213747     -0.00000000
  H      2    1     -2.06882847     -1.44022412      0.00000000
  H      3    1     -0.12337987     -2.77567521      0.00000000
  H      4    1      0.04651892      1.98813947     -0.00000000
  C      5    6     -1.21953563      0.40211669      0.00000000
  O      6    8     -2.25921553      1.03043814      0.00000000
  C      7    6      1.28797806      0.34644937     -0.00000000
  O      8    8      2.31273661      1.00537216     -0.00000000
  N      9    7      0.03446295      0.97739857     -0.00000000
  N     10    7     -1.17287765     -0.98229824      0.00000000
  C     11    6      1.20107039     -1.10433419     -0.00000000
  H     12    1      2.11220096     -1.67699125     -0.00000000
[GTO]
1    0
S    1    1.000000
   4.56324000E+03    1.96665000E-03 
S    1    1.000000
   6.82024000E+02    1.52306000E-02 
S    1    1.000000
   1.54973000E+02    7.61269000E-02 
S    1    1.000000
   4.44553000E+01    2.60801000E-01 
S    1    1.000000
   1.30290000E+01    6.16462000E-01 
S    1    1.000000
   1.82773000E+00    2.21006000E-01 
SP   3    1.000000
   2.09642000E+01    1.14660000E-01   4.02487000E-02 
   4.80331000E+00    9.19999000E-01   2.37594000E-01 
   1.45933000E+00   -3.03068000E-03   8.15854000E-01 
SP   1    1.000000
   4.83456000E-01    1.00000000E+00   1.00000000E+00 
SP   1    1.000000
   1.45585000E-01    1.00000000E+00   1.00000000E+00 
SP   1    1.000000
   4.38000000E-02    1.00000000E+00   1.00000000E+00 
SP   1    1.000000
   1.31927711E-02    1.00000000E+00   1.00000000E+00 
D    1    1.000000
   6.26000000E-01    1.00000000E+00 

2    0
S    3    1.000000
   3.38650000E+01    2.54938000E-02 
   5.09479000E+00    1.90373000E-01 
   1.15879000E+00    8.52161000E-01 
S    1    1.000000
   3.25840000E-01    1.00000000E+00 
S    1    1.000000
   1.02741000E-01    1.00000000E+00 
S    1    1.000000
   3.60000000E-02    1.00000000E+00 
P    1    1.000000
   7.50000000E-01    1.00000000E+00 

3    0
S    3    1.000000
   3.38650000E+01    2.54938000E-02 
   5.09479000E+00    1.90373000E-01 
   1.15879000E+00    8.52161000E-01 
S    1    1.000000
   3.25840000E-01    1.00000000E+00 
S    1    1.000000
   1.02741000E-01    1.00000000E+00 
S    1    1.000000
   3.60000000E-02    1.00000000E+00 
P    1    1.000000
   7.50000000E-01    1.00000000E+00 

4    0
S    3    1.000000
   3.38650000E+01    2.54938000E-02 
   5.09479000E+00    1.90373000E-01 
   1.15879000E+00    8.52161000E-01 
S    1    1.000000
   3.25840000E-01    1.00000000E+00 
S    1    1.000000
   1.02741000E-01    1.00000000E+00 
S    1    1.000000
   3.60000000E-02    1.00000000E+00 
P    1    1.000000
   7.50000000E-01    1.00000000E+00 

5    0
S    1    1.000000
   4.56324000E+03    1.96665000E-03 
S    1    1.000000
   6.82024000E+02    1.52306000E-02 
S    1    1.000000
   1.54973000E+02    7.61269000E-02 
S    1    1.000000
   4.44553000E+01    2.60801000E-01 
S    1    1.000000
   1.30290000E+01    6.16462000E-01 
S    1    1.000000
   1.82773000E+00    2.21006000E-01 
SP   3    1.000000
   2.09642000E+01    1.14660000E-01   4.02487000E-02 
   4.80331000E+00    9.19999000E-01   2.37594000E-01 
   1.45933000E+00   -3.03068000E-03   8.15854000E-01 
SP   1    1.000000
   4.83456000E-01    1.00000000E+00   1.00000000E+00 
SP   1    1.000000
   1.45585000E-01    1.00000000E+00   1.00000000E+00 
SP   1    1.000000
   4.38000000E-02    1.00000000E+00   1.00000000E+00 
SP   1    1.000000
   1.31927711E-02    1.00000000E+00   1.00000000E+00 
D    1    1.000000
   6.26000000E-01    1.00000000E+00 

6    0
S    1    1.000000
   8.58850000E+03    1.89515000E-03 
S    1    1.000000
   1.29723000E+03    1.43859000E-02 
S    1    1.000000
   2.99296000E+02    7.07320000E-02 
S    1    1.000000
   8.73771000E+01    2.40001000E-01 
S    1    1.000000
   2.56789000E+01    5.94797000E-01 
S    1    1.000000
   3.74004000E+00    2.80802000E-01 
SP   3    1.000000
   4.21175000E+01    1.13889000E-01   3.65114000E-02 
   9.62837000E+00    9.20811000E-01   2.37153000E-01 
   2.85332000E+00   -3.27447000E-03   8.19702000E-01 
SP   1    1.000000
   9.05661000E-01    1.00000000E+00   1.00000000E+00 
SP   1    1.000000
   2.55611000E-01    1.00000000E+00   1.00000000E+00 
SP   1    1.000000
   8.45000000E-02    1.00000000E+00   1.00000000E+00 
SP   1    1.000000
   2.54518072E-02    1.00000000E+00   1.00000000E+00 
D    1    1.000000
   1.29200000E+00    1.00000000E+00 

7    0
S    1    1.000000
   4.56324000E+03    1.96665000E-03 
S    1    1.000000
   6.82024000E+02    1.52306000E-02 
S    1    1.000000
   1.54973000E+02    7.61269000E-02 
S    1    1.000000
   4.44553000E+01    2.60801000E-01 
S    1    1.000000
   1.30290000E+01    6.16462000E-01 
S    1    1.000000
   1.82773000E+00    2.21006000E-01 
SP   3    1.000000
   2.09642000E+01    1.14660000E-01   4.02487000E-02 
   4.80331000E+00    9.19999000E-01   2.37594000E-01 
   1.45933000E+00   -3.03068000E-03   8.15854000E-01 
SP   1    1.000000
   4.83456000E-01    1.00000000E+00   1.00000000E+00 
SP   1    1.000000
   1.45585000E-01    1.00000000E+00   1.00000000E+00 
SP   1    1.000000
   4.38000000E-02    1.00000000E+00   1.00000000E+00 
SP   1    1.000000
   1.31927711E-02    1.00000000E+00   1.00000000E+00 
D    1    1.000000
   6.26000000E-01    1.00000000E+00 

8    0
S    1    1.000000
   8.58850000E+03    1.89515000E-03 
S    1    1.000000
   1.29723000E+03    1.43859000E-02 
S    1    1.000000
   2.99296000E+02    7.07320000E-02 
S    1    1.000000
   8.73771000E+01    2.40001000E-01 
S    1    1.000000
   2.56789000E+01    5.94797000E-01 
S    1    1.000000
   3.74004000E+00    2.80802000E-01 
SP   3    1.000000
   4.21175000E+01    1.13889000E-01   3.65114000E-02 
   9.62837000E+00    9.20811000E-01   2.37153000E-01 
   2.85332000E+00   -3.27447000E-03   8.19702000E-01 
SP   1    1.000000
   9.05661000E-01    1.00000000E+00   1.00000000E+00 
SP   1    1.000000
   2.55611000E-01    1.00000000E+00   1.00000000E+00 
SP   1    1.000000
   8.45000000E-02    1.00000000E+00   1.00000000E+00 
SP   1    1.000000
   2.54518072E-02    1.00000000E+00   1.00000000E+00 
D    1    1.000000
   1.29200000E+00    1.00000000E+00 

9    0
S    1    1.000000
   6.29348000E+03    1.96979000E-03 
S    1    1.000000
   9.49044000E+02    1.49613000E-02 
S    1    1.000000
   2.18776000E+02    7.35006000E-02 
S    1    1.000000
   6.36916000E+01    2.48937000E-01 
S    1    1.000000
   1.88282000E+01    6.02460000E-01 
S    1    1.000000
   2.72023000E+00    2.56202000E-01 
SP   3    1.000000
   3.06331000E+01    1.11906000E-01   3.83119000E-02 
   7.02614000E+00    9.21666000E-01   2.37403000E-01 
   2.11205000E+00   -2.56919000E-03   8.17592000E-01 
SP   1    1.000000
   6.84009000E-01    1.00000000E+00   1.00000000E+00 
SP   1    1.000000
   2.00878000E-01    1.00000000E+00   1.00000000E+00 
SP   1    1.000000
   6.39000000E-02    1.00000000E+00   1.00000000E+00 
SP   1    1.000000
   1.92469880E-02    1.00000000E+00   1.00000000E+00 
D    1    1.000000
   9.13000000E-01    1.00000000E+00 

10    0
S    1    1.000000
   6.29348000E+03    1.96979000E-03 
S    1    1.000000
   9.49044000E+02    1.49613000E-02 
S    1    1.000000
   2.18776000E+02    7.35006000E-02 
S    1    1.000000
   6.36916000E+01    2.48937000E-01 
S    1    1.000000
   1.88282000E+01    6.02460000E-01 
S    1    1.000000
   2.72023000E+00    2.56202000E-01 
SP   3    1.000000
   3.06331000E+01    1.11906000E-01   3.83119000E-02 
   7.02614000E+00    9.21666000E-01   2.37403000E-01 
   2.11205000E+00   -2.56919000E-03   8.17592000E-01 
SP   1    1.000000
   6.84009000E-01    1.00000000E+00   1.00000000E+00 
SP   1    1.000000
   2.00878000E-01    1.00000000E+00   1.00000000E+00 
SP   1    1.000000
   6.39000000E-02    1.00000000E+00   1.00000000E+00 
SP   1    1.000000
   1.92469880E-02    1.00000000E+00   1.00000000E+00 
D    1    1.000000
   9.13000000E-01    1.00000000E+00 

11    0
S    1    1.000000
   4.56324000E+03    1.96665000E-03 
S    1    1.000000
   6.82024000E+02    1.52306000E-02 
S    1    1.000000
   1.54973000E+02    7.61269000E-02 
S    1    1.000000
   4.44553000E+01    2.60801000E-01 
S    1    1.000000
   1.30290000E+01    6.16462000E-01 
S    1    1.000000
   1.82773000E+00    2.21006000E-01 
SP   3    1.000000
   2.09642000E+01    1.14660000E-01   4.02487000E-02 
   4.80331000E+00    9.19999000E-01   2.37594000E-01 
   1.45933000E+00   -3.03068000E-03   8.15854000E-01 
SP   1    1.000000
   4.83456000E-01    1.00000000E+00   1.00000000E+00 
SP   1    1.000000
   1.45585000E-01    1.00000000E+00   1.00000000E+00 
SP   1    1.000000
   4.38000000E-02    1.00000000E+00   1.00000000E+00 
SP   1    1.000000
   1.31927711E-02    1.00000000E+00   1.00000000E+00 
D    1    1.000000
   6.26000000E-01    1.00000000E+00 

12    0
S    3    1.000000
   3.38650000E+01    2.54938000E-02 
   5.09479000E+00    1.90373000E-01 
   1.15879000E+00    8.52161000E-01 
S    1    1.000000
   3.25840000E-01    1.00000000E+00 
S    1    1.000000
   1.02741000E-01    1.00000000E+00 
S    1    1.000000
   3.60000000E-02    1.00000000E+00 
P    1    1.000000
   7.50000000E-01    1.00000000E+00 

[MO]
Sym=X
Ene=0.926957
Spin=Alpha
Occup=1
1    -7.50018267e-07
2    -4.00908607e-06
3    -1.27426028e-05
4    -4.04262669e-05
5    -6.16425394e-05
6    -1.63480117e-05
7    -1.67526739e-05
8    -1.44544278e-05
9    8.85192386e-16
10    0.000117478612
11    0.000118499882
12    0.000102347752
13    -1.97822002e-15
14    -8.18692204e-05
15    -9.38130668e-05
16    0.000104798607
17    4.78576989e-15
18    -0.00175973357
19    -2.21054576e-05
20    -0.000624426549
21    -2.86228507e-14
22    2.23126216e-05
23    9.60461334e-05
24    -0.000213649293
25    -5.32113873e-14
26    7.47982196e-05
27    6.63048245e-16
28    2.8768822e-07
29    5.14690226e-16
30    1.30954964e-05
31    1.04806218e-05
32    -3.86768511e-05
33    0.000213713195
34    0.000324567879
35    1.36202723e-06
36    -4.58487318e-06
37    -6.12711538e-16
38    -2.95890445e-07
39    8.96065267e-05
40    -3.9027402e-05
41    -2.19634804e-05
42    1.66530985e-05
43    1.95145243e-05
44    2.73058828e-16
45    3.4512078e-05
46    5.17600435e-05
47    0.000131862058
48    -0.000232856525
49    -1.22202943e-05
50    -4.1473842e-05
51    3.30744241e-16
52    4.02521297e-07
53    3.14533456e-06
54    1.54831809e-05
55    5.39555426e-05
56    0.000119320216
57    7.53313199e-06
58    0.000190568796
59    -1.73820792e-05
60    -1.72536277e-06
61    -1.25138301e-15
62    7.48464706e-05
63    5.16763898e-05
64    2.3399106e-06
65    2.81341004e-16
66    -4.23916554e-05
67    -0.000477638427
68    0.000227881369
69    -3.68833856e-15
70    0.00057574823
71    -0.000130927281
72    -0.000260911373
73    -2.33771639e-14
74    -0.000477833766
75    -0.00018597886
76    -5.74517856e-05
77    -8.70915135e-15
78    5.31897448e-06
79    4.20138762e-16
80    1.98350877e-06
81    7.73514372e-16
82    4.34501311e-05
83    -1.96345337e-09
84    -1.86162103e-09
85    -1.04143282e-07
86    7.85406034e-10
87    -3.40786221e-06
88    -1.2932555e-05
89    6.63733551e-06
90    -1.01514478e-06
91    8.51148266e-07
92    -5.3313063e-16
93    3.70126877e-05
94    2.00826357e-05
95    -1.68762702e-06
96    -7.69641631e-16
97    -0.000177072649
98    -8.27742741e-05
99    6.44723725e-05
100    -3.46704717e-15
101    -0.00076667267
102    -0.000236023285
103    6.16851889e-05
104    3.31012516e-15
105    -0.000214480102
106    4.98942112e-05
107    0.000209059505
108    -1.33987338e-14
109    4.91223754e-06
110    6.87010118e-16
111    1.33500498e-06
112    -6.95420918e-17
113    5.17753438e-06
114    0.00110952626
115    0.00858938562
116    0.0428488099
117    0.147107674
118    0.347544069
119    0.126443436
120    0.465468827
121    -0.000739989616
122    0.000491625329
123    2.08744668e-15
124    0.00162824405
125    0.000805078538
126    -0.000244437364
127    4.75579697e-15
128    0.00152571509
129    -0.000287786286
130    0.000416408897
131    3.96055644e-15
132    -0.00235406504
133    0.00015545273
134    0.00241832928
135    -3.18433722e-14
136    -0.00025982336
137    -0.000297872358
138    4.51365389e-05
139    -1.90951395e-15
140    0.000335116602
141    2.10959946e-16
142    -0.000254724922
143    1.65524252e-16
144    -5.05083305e-05
145    -3.79191869e-07
146    -2.78055133e-06
147    -1.45709936e-05
148    -4.65829552e-05
149    -0.000140213432
150    -0.000195531577
151    -0.000193762421
152    -0.000205146426
153    -0.000137156481
154    1.86544928e-15
155    0.000642474944
156    -0.000558779384
157    -0.00037201084
158    1.65981278e-15
159    -0.000265563198
160    0.000229434137
161    0.000115262573
162    2.54964724e-15
163    -0.000368536655
164    -7.03393723e-05
165    -0.00018852304
166    1.19667991e-14
167    -0.00221815015
168    0.00059347004
169    6.50980858e-05
170    -7.46395572e-15
171    0.000256688992
172    -2.34750983e-16
173    -0.000114610919
174    -3.98632292e-16
175    0.000113998381
176    -2.79589739e-07
177    -1.94438877e-06
178    -1.09610253e-05
179    -3.21673905e-05
180    -0.000126424585
181    -0.000262501434
182    -4.6583813e-05
183    4.47912264e-05
184    -3.86899233e-05
185    -7.73978163e-17
186    0.000570615732
187    0.000694520249
188    -0.000329259279
189    4.56504809e-15
190    5.23012804e-05
191    -0.000162158041
192    -0.000157575165
193    -5.18084438e-15
194    -0.00125062312
195    -0.00101572295
196    -1.78409472e-05
197    2.6283006e-14
198    0.000436400331
199    0.000652550947
200    9.11267164e-05
201    1.31062969e-14
202    -0.000268488501
203    -8.6952577e-17
204    -0.000123801613
205    7.86477562e-16
206    0.000216165109
207    1.81719057e-09
208    5.2587518e-08
209    -2.07457713e-08
210    1.00297348e-06
211    -7.33669352e-06
212    -3.61166678e-05
213    2.37615858e-05
214    -7.12882294e-06
215    -1.58792743e-06
216    -1.66830245e-15
217    7.02070319e-05
218    2.80040748e-05
219    9.25144612e-06
220    -3.08326846e-16
221    -1.02274744e-05
222    -2.58133139e-05
223    3.64613403e-05
224    -5.68403896e-15
225    0.000117728866
226    0.000457519087
227    7.84043557e-05
228    9.6319148e-15
229    0.000736579093
230    -2.23552287e-05
231    0.000352537183
232    4.45362986e-14
233    -9.40092125e-06
234    2.36328265e-16
235    -3.95423231e-06
236    1.30119463e-16
237    -3.52600235e-06
238    4.20474389e-06
239    3.25102527e-05
240    0.000162383229
241    0.000556136101
242    0.00132015045
243    0.000445283421
244    0.00171683946
245    -1.89156496e-06
246    8.98838608e-05
247    1.29848914e-15
248    0.000298188398
249    7.4092188e-05
250    0.00048897352
251    2.398091e-15
252    -0.000195025193
253    4.84281794e-05
254    -0.000271468334
255    1.10321528e-15
256    0.00603066643
257    -0.00026579651
258    0.00143242448
259    2.99706155e-14
260    0.000623466254
261    9.87739466e-05
262    0.000365956548
263    3.24349428e-14
264    3.53802225e-05
265    7.68219333e-16
266    -2.23058931e-05
267    1.4475997e-17
268    -0.00028332235
269    2.5759919e-05
270    9.19219232e-05
271    -0.000179074294
272    0.000268099097
273    -3.70251627e-05
274    7.23988925e-05
275    5.0439827e-16
[5D]