[Molden Format]
[Atoms] (Angs)
  C      1    6     -0.00714236     -1.70213747     -0.00000000
  H      2    1     -2.06882847     -1.44022412      0.00000000
  H      3    1     -0.12337987     -2.77567521      0.00000000
  H      4    1      0.04651892      1.98813947     -0.00000000
  C      5    6     -1.21953563      0.40211669      0.00000000
  O      6    8     -2.25921553      1.03043814      0.00000000
  C      7    6      1.28797806      0.34644937     -0.00000000
  O      8    8      2.31273661      1.00537216     -0.00000000
  N      9    7      0.03446295      0.97739857     -0.00000000
  N     10    7     -1.17287765     -0.98229824      0.00000000
  C     11    6      1.20107039     -1.10433419     -0.00000000
  H     12    1      2.11220096     -1.67699125     -0.00000000
[GTO]
1    0
S    1    1.000000
   4.56324000E+03    1.96665000E-03 
S    1    1.000000
   6.82024000E+02    1.52306000E-02 
S    1    1.000000
   1.54973000E+02    7.61269000E-02 
S    1    1.000000
   4.44553000E+01    2.60801000E-01 
S    1    1.000000
   1.30290000E+01    6.16462000E-01 
S    1    1.000000
   1.82773000E+00    2.21006000E-01 
SP   3    1.000000
   2.09642000E+01    1.14660000E-01   4.02487000E-02 
   4.80331000E+00    9.19999000E-01   2.37594000E-01 
   1.45933000E+00   -3.03068000E-03   8.15854000E-01 
SP   1    1.000000
   4.83456000E-01    1.00000000E+00   1.00000000E+00 
SP   1    1.000000
   1.45585000E-01    1.00000000E+00   1.00000000E+00 
SP   1    1.000000
   4.38000000E-02    1.00000000E+00   1.00000000E+00 
SP   1    1.000000
   1.31927711E-02    1.00000000E+00   1.00000000E+00 
D    1    1.000000
   6.26000000E-01    1.00000000E+00 

2    0
S    3    1.000000
   3.38650000E+01    2.54938000E-02 
   5.09479000E+00    1.90373000E-01 
   1.15879000E+00    8.52161000E-01 
S    1    1.000000
   3.25840000E-01    1.00000000E+00 
S    1    1.000000
   1.02741000E-01    1.00000000E+00 
S    1    1.000000
   3.60000000E-02    1.00000000E+00 
P    1    1.000000
   7.50000000E-01    1.00000000E+00 

3    0
S    3    1.000000
   3.38650000E+01    2.54938000E-02 
   5.09479000E+00    1.90373000E-01 
   1.15879000E+00    8.52161000E-01 
S    1    1.000000
   3.25840000E-01    1.00000000E+00 
S    1    1.000000
   1.02741000E-01    1.00000000E+00 
S    1    1.000000
   3.60000000E-02    1.00000000E+00 
P    1    1.000000
   7.50000000E-01    1.00000000E+00 

4    0
S    3    1.000000
   3.38650000E+01    2.54938000E-02 
   5.09479000E+00    1.90373000E-01 
   1.15879000E+00    8.52161000E-01 
S    1    1.000000
   3.25840000E-01    1.00000000E+00 
S    1    1.000000
   1.02741000E-01    1.00000000E+00 
S    1    1.000000
   3.60000000E-02    1.00000000E+00 
P    1    1.000000
   7.50000000E-01    1.00000000E+00 

5    0
S    1    1.000000
   4.56324000E+03    1.96665000E-03 
S    1    1.000000
   6.82024000E+02    1.52306000E-02 
S    1    1.000000
   1.54973000E+02    7.61269000E-02 
S    1    1.000000
   4.44553000E+01    2.60801000E-01 
S    1    1.000000
   1.30290000E+01    6.16462000E-01 
S    1    1.000000
   1.82773000E+00    2.21006000E-01 
SP   3    1.000000
   2.09642000E+01    1.14660000E-01   4.02487000E-02 
   4.80331000E+00    9.19999000E-01   2.37594000E-01 
   1.45933000E+00   -3.03068000E-03   8.15854000E-01 
SP   1    1.000000
   4.83456000E-01    1.00000000E+00   1.00000000E+00 
SP   1    1.000000
   1.45585000E-01    1.00000000E+00   1.00000000E+00 
SP   1    1.000000
   4.38000000E-02    1.00000000E+00   1.00000000E+00 
SP   1    1.000000
   1.31927711E-02    1.00000000E+00   1.00000000E+00 
D    1    1.000000
   6.26000000E-01    1.00000000E+00 

6    0
S    1    1.000000
   8.58850000E+03    1.89515000E-03 
S    1    1.000000
   1.29723000E+03    1.43859000E-02 
S    1    1.000000
   2.99296000E+02    7.07320000E-02 
S    1    1.000000
   8.73771000E+01    2.40001000E-01 
S    1    1.000000
   2.56789000E+01    5.94797000E-01 
S    1    1.000000
   3.74004000E+00    2.80802000E-01 
SP   3    1.000000
   4.21175000E+01    1.13889000E-01   3.65114000E-02 
   9.62837000E+00    9.20811000E-01   2.37153000E-01 
   2.85332000E+00   -3.27447000E-03   8.19702000E-01 
SP   1    1.000000
   9.05661000E-01    1.00000000E+00   1.00000000E+00 
SP   1    1.000000
   2.55611000E-01    1.00000000E+00   1.00000000E+00 
SP   1    1.000000
   8.45000000E-02    1.00000000E+00   1.00000000E+00 
SP   1    1.000000
   2.54518072E-02    1.00000000E+00   1.00000000E+00 
D    1    1.000000
   1.29200000E+00    1.00000000E+00 

7    0
S    1    1.000000
   4.56324000E+03    1.96665000E-03 
S    1    1.000000
   6.82024000E+02    1.52306000E-02 
S    1    1.000000
   1.54973000E+02    7.61269000E-02 
S    1    1.000000
   4.44553000E+01    2.60801000E-01 
S    1    1.000000
   1.30290000E+01    6.16462000E-01 
S    1    1.000000
   1.82773000E+00    2.21006000E-01 
SP   3    1.000000
   2.09642000E+01    1.14660000E-01   4.02487000E-02 
   4.80331000E+00    9.19999000E-01   2.37594000E-01 
   1.45933000E+00   -3.03068000E-03   8.15854000E-01 
SP   1    1.000000
   4.83456000E-01    1.00000000E+00   1.00000000E+00 
SP   1    1.000000
   1.45585000E-01    1.00000000E+00   1.00000000E+00 
SP   1    1.000000
   4.38000000E-02    1.00000000E+00   1.00000000E+00 
SP   1    1.000000
   1.31927711E-02    1.00000000E+00   1.00000000E+00 
D    1    1.000000
   6.26000000E-01    1.00000000E+00 

8    0
S    1    1.000000
   8.58850000E+03    1.89515000E-03 
S    1    1.000000
   1.29723000E+03    1.43859000E-02 
S    1    1.000000
   2.99296000E+02    7.07320000E-02 
S    1    1.000000
   8.73771000E+01    2.40001000E-01 
S    1    1.000000
   2.56789000E+01    5.94797000E-01 
S    1    1.000000
   3.74004000E+00    2.80802000E-01 
SP   3    1.000000
   4.21175000E+01    1.13889000E-01   3.65114000E-02 
   9.62837000E+00    9.20811000E-01   2.37153000E-01 
   2.85332000E+00   -3.27447000E-03   8.19702000E-01 
SP   1    1.000000
   9.05661000E-01    1.00000000E+00   1.00000000E+00 
SP   1    1.000000
   2.55611000E-01    1.00000000E+00   1.00000000E+00 
SP   1    1.000000
   8.45000000E-02    1.00000000E+00   1.00000000E+00 
SP   1    1.000000
   2.54518072E-02    1.00000000E+00   1.00000000E+00 
D    1    1.000000
   1.29200000E+00    1.00000000E+00 

9    0
S    1    1.000000
   6.29348000E+03    1.96979000E-03 
S    1    1.000000
   9.49044000E+02    1.49613000E-02 
S    1    1.000000
   2.18776000E+02    7.35006000E-02 
S    1    1.000000
   6.36916000E+01    2.48937000E-01 
S    1    1.000000
   1.88282000E+01    6.02460000E-01 
S    1    1.000000
   2.72023000E+00    2.56202000E-01 
SP   3    1.000000
   3.06331000E+01    1.11906000E-01   3.83119000E-02 
   7.02614000E+00    9.21666000E-01   2.37403000E-01 
   2.11205000E+00   -2.56919000E-03   8.17592000E-01 
SP   1    1.000000
   6.84009000E-01    1.00000000E+00   1.00000000E+00 
SP   1    1.000000
   2.00878000E-01    1.00000000E+00   1.00000000E+00 
SP   1    1.000000
   6.39000000E-02    1.00000000E+00   1.00000000E+00 
SP   1    1.000000
   1.92469880E-02    1.00000000E+00   1.00000000E+00 
D    1    1.000000
   9.13000000E-01    1.00000000E+00 

10    0
S    1    1.000000
   6.29348000E+03    1.96979000E-03 
S    1    1.000000
   9.49044000E+02    1.49613000E-02 
S    1    1.000000
   2.18776000E+02    7.35006000E-02 
S    1    1.000000
   6.36916000E+01    2.48937000E-01 
S    1    1.000000
   1.88282000E+01    6.02460000E-01 
S    1    1.000000
   2.72023000E+00    2.56202000E-01 
SP   3    1.000000
   3.06331000E+01    1.11906000E-01   3.83119000E-02 
   7.02614000E+00    9.21666000E-01   2.37403000E-01 
   2.11205000E+00   -2.56919000E-03   8.17592000E-01 
SP   1    1.000000
   6.84009000E-01    1.00000000E+00   1.00000000E+00 
SP   1    1.000000
   2.00878000E-01    1.00000000E+00   1.00000000E+00 
SP   1    1.000000
   6.39000000E-02    1.00000000E+00   1.00000000E+00 
SP   1    1.000000
   1.92469880E-02    1.00000000E+00   1.00000000E+00 
D    1    1.000000
   9.13000000E-01    1.00000000E+00 

11    0
S    1    1.000000
   4.56324000E+03    1.96665000E-03 
S    1    1.000000
   6.82024000E+02    1.52306000E-02 
S    1    1.000000
   1.54973000E+02    7.61269000E-02 
S    1    1.000000
   4.44553000E+01    2.60801000E-01 
S    1    1.000000
   1.30290000E+01    6.16462000E-01 
S    1    1.000000
   1.82773000E+00    2.21006000E-01 
SP   3    1.000000
   2.09642000E+01    1.14660000E-01   4.02487000E-02 
   4.80331000E+00    9.19999000E-01   2.37594000E-01 
   1.45933000E+00   -3.03068000E-03   8.15854000E-01 
SP   1    1.000000
   4.83456000E-01    1.00000000E+00   1.00000000E+00 
SP   1    1.000000
   1.45585000E-01    1.00000000E+00   1.00000000E+00 
SP   1    1.000000
   4.38000000E-02    1.00000000E+00   1.00000000E+00 
SP   1    1.000000
   1.31927711E-02    1.00000000E+00   1.00000000E+00 
D    1    1.000000
   6.26000000E-01    1.00000000E+00 

12    0
S    3    1.000000
   3.38650000E+01    2.54938000E-02 
   5.09479000E+00    1.90373000E-01 
   1.15879000E+00    8.52161000E-01 
S    1    1.000000
   3.25840000E-01    1.00000000E+00 
S    1    1.000000
   1.02741000E-01    1.00000000E+00 
S    1    1.000000
   3.60000000E-02    1.00000000E+00 
P    1    1.000000
   7.50000000E-01    1.00000000E+00 

[MO]
Sym=X
Ene=0.041033
Spin=Alpha
Occup=1
1    -8.65162773e-05
2    -0.000431986879
3    -0.00148074501
4    -0.0035159448
5    -0.00124009688
6    -0.0045923474
7    -0.00012329975
8    -7.80018461e-05
9    -4.62132873e-16
10    -0.000527142793
11    -0.000576156324
12    -0.000302529191
13    1.4917944e-15
14    0.000983038909
15    0.000296133612
16    0.000599717303
17    6.57269132e-16
18    0.00264101304
19    0.000142994622
20    0.00139256419
21    -5.88033847e-14
22    0.000221716374
23    -8.0328405e-06
24    0.000268888757
25    7.32985017e-14
26    -0.00030348351
27    2.73318276e-16
28    2.53116523e-05
29    7.55796001e-16
30    -0.000210964583
31    -7.86434782e-06
32    -5.59054179e-05
33    -0.000107441936
34    -0.000326768519
35    -1.58426538e-05
36    4.77297388e-06
37    -1.40342712e-15
38    -3.28092742e-05
39    -7.55197116e-05
40    0.000409015888
41    0.000689377724
42    -5.96589549e-05
43    -7.23908462e-05
44    -2.74908877e-17
45    -1.4620481e-05
46    -4.13000952e-05
47    -3.52338828e-05
48    -0.000247239502
49    -5.32170712e-06
50    6.52053582e-06
51    1.08059611e-15
52    5.13039432e-07
53    3.9447044e-06
54    1.98730778e-05
55    6.74723262e-05
56    0.000166554785
57    8.87112535e-05
58    0.000197758356
59    5.18093407e-06
60    -4.6994435e-06
61    -2.00196173e-15
62    -7.68843689e-05
63    -1.31929508e-05
64    1.6616458e-05
65    -1.91497922e-16
66    0.000604568824
67    0.000518304704
68    -0.000281021444
69    -5.3670362e-15
70    -0.000123643625
71    0.000216898068
72    9.16286567e-05
73    -8.24823084e-14
74    -6.96891696e-05
75    7.73824237e-05
76    -4.30598023e-05
77    -6.45027269e-14
78    -3.69256029e-06
79    4.74081083e-16
80    -9.78002542e-06
81    1.18430977e-15
82    -2.70677425e-06
83    1.21511563e-08
84    8.32933382e-08
85    4.74222287e-07
86    1.36767819e-06
87    5.8033137e-06
88    1.08775439e-05
89    -1.62550914e-07
90    2.85316517e-06
91    -8.42772178e-07
92    -8.20738624e-16
93    -2.38755691e-05
94    -1.43840808e-05
95    5.43590536e-06
96    -2.58991575e-15
97    0.00011226074
98    5.36857751e-05
99    -2.99490274e-05
100    -3.51844042e-15
101    0.000606308636
102    0.00014655868
103    -9.21854711e-05
104    3.68262693e-15
105    0.000149597739
106    -5.18832276e-05
107    -0.000118918688
108    2.86808928e-14
109    8.05995556e-08
110    2.08028066e-16
111    -1.32141008e-06
112    -4.68940341e-16
113    -1.26795947e-06
114    -5.07236599e-05
115    -0.000392703978
116    -0.00195873344
117    -0.00672519209
118    -0.0158760007
119    -0.0056481189
120    -0.0212738859
121    4.04751389e-05
122    5.64646839e-05
123    4.14839661e-15
124    -0.000630641835
125    -9.02289484e-07
126    0.000648079663
127    3.57667349e-15
128    0.000536178082
129    -0.000503055421
130    -0.000934840779
131    1.3910367e-14
132    0.00198508318
133    -0.000798223801
134    -0.00117897385
135    -7.16279692e-14
136    0.000321456823
137    8.0576097e-05
138    -2.55141932e-06
139    4.52449471e-14
140    -7.46789939e-05
141    3.10225752e-16
142    8.44054455e-05
143    3.90119218e-16
144    0.000355927093
145    7.27348537e-08
146    5.12099369e-07
147    2.81228223e-06
148    8.46210265e-06
149    3.18753525e-05
150    5.36815408e-05
151    9.14605386e-06
152    1.767565e-06
153    -1.72462765e-05
154    1.91539e-15
155    -0.00010292299
156    7.10634044e-05
157    6.0572605e-05
158    5.676383e-15
159    0.000207375591
160    -0.000136995677
161    -7.23169516e-06
162    2.83622803e-15
163    0.000857443286
164    -0.000115249991
165    -3.90188362e-05
166    1.56929643e-14
167    0.00192863702
168    -0.000391332674
169    -0.000105887352
170    3.33296461e-15
171    -4.02245578e-05
172    -6.4592164e-16
173    6.93255027e-06
174    -6.47285906e-16
175    1.97583207e-05
176    -7.98468912e-08
177    -6.61433348e-07
178    -2.85608465e-06
179    -1.11591085e-05
180    -1.31651247e-05
181    4.36477008e-05
182    -6.68162131e-05
183    2.18339949e-05
184    -1.24772816e-05
185    -1.17445857e-15
186    -7.79659439e-05
187    -0.000120844752
188    5.38843444e-05
189    6.85726714e-15
190    -0.000292173366
191    0.000204279279
192    0.000228007888
193    -1.53822824e-14
194    -0.000599727309
195    0.000300651951
196    0.00031021931
197    6.19414328e-14
198    -0.000759018694
199    -0.000617179189
200    0.00019260309
201    4.39413132e-14
202    4.73695107e-05
203    -2.53499339e-16
204    1.03949727e-05
205    7.42070675e-16
206    -2.65957268e-05
207    -2.55938349e-07
208    -2.00120135e-06
209    -9.430554e-06
210    -3.34556366e-05
211    -6.74906929e-05
212    1.66240604e-05
213    -0.000141766288
214    2.63106178e-05
215    -7.99999819e-06
216    -3.16532877e-15
217    -6.97293307e-05
218    -0.000104688821
219    4.74694013e-05
220    2.64389173e-15
221    -0.000298922279
222    -0.000153952624
223    -0.000191958005
224    -1.61517174e-14
225    -0.000974730443
226    -0.000435947801
227    -0.000273839817
228    5.3944365e-14
229    -0.000594280222
230    -4.11654077e-05
231    -0.000242661132
232    1.05280131e-14
233    3.05871314e-05
234    -3.87801309e-17
235    1.32241408e-05
236    2.27303523e-16
237    -4.22412695e-05
238    -0.00110790737
239    -0.00857712675
240    -0.0427852823
241    -0.146902604
242    -0.347014416
243    -0.126911241
244    -0.464511937
245    0.000183545339
246    -0.000235003508
247    5.98055839e-16
248    -0.00183775936
249    4.02849671e-05
250    0.000126175826
251    6.08242669e-15
252    -0.00183985942
253    0.000785105894
254    -0.000589382035
255    -5.20056399e-15
256    -0.00492497568
257    0.00102794158
258    -0.00107355407
259    7.99410918e-14
260    -0.000291645127
261    -9.85651238e-05
262    -0.000239129328
263    -8.1626036e-14
264    -7.05731764e-05
265    5.72891582e-16
266    9.57171323e-05
267    2.55938811e-16
268    -7.2324444e-05
269    -0.000379481082
270    -0.000454661196
271    -0.000271874469
272    -0.000481036927
273    0.000268875258
274    -0.0001564181
275    1.01062536e-15
[5D]