[Molden Format]
[Atoms] (Angs)
  C      1    6     -0.00714236     -1.70213747     -0.00000000
  H      2    1     -2.06882847     -1.44022412      0.00000000
  H      3    1     -0.12337987     -2.77567521      0.00000000
  H      4    1      0.04651892      1.98813947     -0.00000000
  C      5    6     -1.21953563      0.40211669      0.00000000
  O      6    8     -2.25921553      1.03043814      0.00000000
  C      7    6      1.28797806      0.34644937     -0.00000000
  O      8    8      2.31273661      1.00537216     -0.00000000
  N      9    7      0.03446295      0.97739857     -0.00000000
  N     10    7     -1.17287765     -0.98229824      0.00000000
  C     11    6      1.20107039     -1.10433419     -0.00000000
  H     12    1      2.11220096     -1.67699125     -0.00000000
[GTO]
1    0
S    1    1.000000
   4.56324000E+03    1.96665000E-03 
S    1    1.000000
   6.82024000E+02    1.52306000E-02 
S    1    1.000000
   1.54973000E+02    7.61269000E-02 
S    1    1.000000
   4.44553000E+01    2.60801000E-01 
S    1    1.000000
   1.30290000E+01    6.16462000E-01 
S    1    1.000000
   1.82773000E+00    2.21006000E-01 
SP   3    1.000000
   2.09642000E+01    1.14660000E-01   4.02487000E-02 
   4.80331000E+00    9.19999000E-01   2.37594000E-01 
   1.45933000E+00   -3.03068000E-03   8.15854000E-01 
SP   1    1.000000
   4.83456000E-01    1.00000000E+00   1.00000000E+00 
SP   1    1.000000
   1.45585000E-01    1.00000000E+00   1.00000000E+00 
SP   1    1.000000
   4.38000000E-02    1.00000000E+00   1.00000000E+00 
SP   1    1.000000
   1.31927711E-02    1.00000000E+00   1.00000000E+00 
D    1    1.000000
   6.26000000E-01    1.00000000E+00 

2    0
S    3    1.000000
   3.38650000E+01    2.54938000E-02 
   5.09479000E+00    1.90373000E-01 
   1.15879000E+00    8.52161000E-01 
S    1    1.000000
   3.25840000E-01    1.00000000E+00 
S    1    1.000000
   1.02741000E-01    1.00000000E+00 
S    1    1.000000
   3.60000000E-02    1.00000000E+00 
P    1    1.000000
   7.50000000E-01    1.00000000E+00 

3    0
S    3    1.000000
   3.38650000E+01    2.54938000E-02 
   5.09479000E+00    1.90373000E-01 
   1.15879000E+00    8.52161000E-01 
S    1    1.000000
   3.25840000E-01    1.00000000E+00 
S    1    1.000000
   1.02741000E-01    1.00000000E+00 
S    1    1.000000
   3.60000000E-02    1.00000000E+00 
P    1    1.000000
   7.50000000E-01    1.00000000E+00 

4    0
S    3    1.000000
   3.38650000E+01    2.54938000E-02 
   5.09479000E+00    1.90373000E-01 
   1.15879000E+00    8.52161000E-01 
S    1    1.000000
   3.25840000E-01    1.00000000E+00 
S    1    1.000000
   1.02741000E-01    1.00000000E+00 
S    1    1.000000
   3.60000000E-02    1.00000000E+00 
P    1    1.000000
   7.50000000E-01    1.00000000E+00 

5    0
S    1    1.000000
   4.56324000E+03    1.96665000E-03 
S    1    1.000000
   6.82024000E+02    1.52306000E-02 
S    1    1.000000
   1.54973000E+02    7.61269000E-02 
S    1    1.000000
   4.44553000E+01    2.60801000E-01 
S    1    1.000000
   1.30290000E+01    6.16462000E-01 
S    1    1.000000
   1.82773000E+00    2.21006000E-01 
SP   3    1.000000
   2.09642000E+01    1.14660000E-01   4.02487000E-02 
   4.80331000E+00    9.19999000E-01   2.37594000E-01 
   1.45933000E+00   -3.03068000E-03   8.15854000E-01 
SP   1    1.000000
   4.83456000E-01    1.00000000E+00   1.00000000E+00 
SP   1    1.000000
   1.45585000E-01    1.00000000E+00   1.00000000E+00 
SP   1    1.000000
   4.38000000E-02    1.00000000E+00   1.00000000E+00 
SP   1    1.000000
   1.31927711E-02    1.00000000E+00   1.00000000E+00 
D    1    1.000000
   6.26000000E-01    1.00000000E+00 

6    0
S    1    1.000000
   8.58850000E+03    1.89515000E-03 
S    1    1.000000
   1.29723000E+03    1.43859000E-02 
S    1    1.000000
   2.99296000E+02    7.07320000E-02 
S    1    1.000000
   8.73771000E+01    2.40001000E-01 
S    1    1.000000
   2.56789000E+01    5.94797000E-01 
S    1    1.000000
   3.74004000E+00    2.80802000E-01 
SP   3    1.000000
   4.21175000E+01    1.13889000E-01   3.65114000E-02 
   9.62837000E+00    9.20811000E-01   2.37153000E-01 
   2.85332000E+00   -3.27447000E-03   8.19702000E-01 
SP   1    1.000000
   9.05661000E-01    1.00000000E+00   1.00000000E+00 
SP   1    1.000000
   2.55611000E-01    1.00000000E+00   1.00000000E+00 
SP   1    1.000000
   8.45000000E-02    1.00000000E+00   1.00000000E+00 
SP   1    1.000000
   2.54518072E-02    1.00000000E+00   1.00000000E+00 
D    1    1.000000
   1.29200000E+00    1.00000000E+00 

7    0
S    1    1.000000
   4.56324000E+03    1.96665000E-03 
S    1    1.000000
   6.82024000E+02    1.52306000E-02 
S    1    1.000000
   1.54973000E+02    7.61269000E-02 
S    1    1.000000
   4.44553000E+01    2.60801000E-01 
S    1    1.000000
   1.30290000E+01    6.16462000E-01 
S    1    1.000000
   1.82773000E+00    2.21006000E-01 
SP   3    1.000000
   2.09642000E+01    1.14660000E-01   4.02487000E-02 
   4.80331000E+00    9.19999000E-01   2.37594000E-01 
   1.45933000E+00   -3.03068000E-03   8.15854000E-01 
SP   1    1.000000
   4.83456000E-01    1.00000000E+00   1.00000000E+00 
SP   1    1.000000
   1.45585000E-01    1.00000000E+00   1.00000000E+00 
SP   1    1.000000
   4.38000000E-02    1.00000000E+00   1.00000000E+00 
SP   1    1.000000
   1.31927711E-02    1.00000000E+00   1.00000000E+00 
D    1    1.000000
   6.26000000E-01    1.00000000E+00 

8    0
S    1    1.000000
   8.58850000E+03    1.89515000E-03 
S    1    1.000000
   1.29723000E+03    1.43859000E-02 
S    1    1.000000
   2.99296000E+02    7.07320000E-02 
S    1    1.000000
   8.73771000E+01    2.40001000E-01 
S    1    1.000000
   2.56789000E+01    5.94797000E-01 
S    1    1.000000
   3.74004000E+00    2.80802000E-01 
SP   3    1.000000
   4.21175000E+01    1.13889000E-01   3.65114000E-02 
   9.62837000E+00    9.20811000E-01   2.37153000E-01 
   2.85332000E+00   -3.27447000E-03   8.19702000E-01 
SP   1    1.000000
   9.05661000E-01    1.00000000E+00   1.00000000E+00 
SP   1    1.000000
   2.55611000E-01    1.00000000E+00   1.00000000E+00 
SP   1    1.000000
   8.45000000E-02    1.00000000E+00   1.00000000E+00 
SP   1    1.000000
   2.54518072E-02    1.00000000E+00   1.00000000E+00 
D    1    1.000000
   1.29200000E+00    1.00000000E+00 

9    0
S    1    1.000000
   6.29348000E+03    1.96979000E-03 
S    1    1.000000
   9.49044000E+02    1.49613000E-02 
S    1    1.000000
   2.18776000E+02    7.35006000E-02 
S    1    1.000000
   6.36916000E+01    2.48937000E-01 
S    1    1.000000
   1.88282000E+01    6.02460000E-01 
S    1    1.000000
   2.72023000E+00    2.56202000E-01 
SP   3    1.000000
   3.06331000E+01    1.11906000E-01   3.83119000E-02 
   7.02614000E+00    9.21666000E-01   2.37403000E-01 
   2.11205000E+00   -2.56919000E-03   8.17592000E-01 
SP   1    1.000000
   6.84009000E-01    1.00000000E+00   1.00000000E+00 
SP   1    1.000000
   2.00878000E-01    1.00000000E+00   1.00000000E+00 
SP   1    1.000000
   6.39000000E-02    1.00000000E+00   1.00000000E+00 
SP   1    1.000000
   1.92469880E-02    1.00000000E+00   1.00000000E+00 
D    1    1.000000
   9.13000000E-01    1.00000000E+00 

10    0
S    1    1.000000
   6.29348000E+03    1.96979000E-03 
S    1    1.000000
   9.49044000E+02    1.49613000E-02 
S    1    1.000000
   2.18776000E+02    7.35006000E-02 
S    1    1.000000
   6.36916000E+01    2.48937000E-01 
S    1    1.000000
   1.88282000E+01    6.02460000E-01 
S    1    1.000000
   2.72023000E+00    2.56202000E-01 
SP   3    1.000000
   3.06331000E+01    1.11906000E-01   3.83119000E-02 
   7.02614000E+00    9.21666000E-01   2.37403000E-01 
   2.11205000E+00   -2.56919000E-03   8.17592000E-01 
SP   1    1.000000
   6.84009000E-01    1.00000000E+00   1.00000000E+00 
SP   1    1.000000
   2.00878000E-01    1.00000000E+00   1.00000000E+00 
SP   1    1.000000
   6.39000000E-02    1.00000000E+00   1.00000000E+00 
SP   1    1.000000
   1.92469880E-02    1.00000000E+00   1.00000000E+00 
D    1    1.000000
   9.13000000E-01    1.00000000E+00 

11    0
S    1    1.000000
   4.56324000E+03    1.96665000E-03 
S    1    1.000000
   6.82024000E+02    1.52306000E-02 
S    1    1.000000
   1.54973000E+02    7.61269000E-02 
S    1    1.000000
   4.44553000E+01    2.60801000E-01 
S    1    1.000000
   1.30290000E+01    6.16462000E-01 
S    1    1.000000
   1.82773000E+00    2.21006000E-01 
SP   3    1.000000
   2.09642000E+01    1.14660000E-01   4.02487000E-02 
   4.80331000E+00    9.19999000E-01   2.37594000E-01 
   1.45933000E+00   -3.03068000E-03   8.15854000E-01 
SP   1    1.000000
   4.83456000E-01    1.00000000E+00   1.00000000E+00 
SP   1    1.000000
   1.45585000E-01    1.00000000E+00   1.00000000E+00 
SP   1    1.000000
   4.38000000E-02    1.00000000E+00   1.00000000E+00 
SP   1    1.000000
   1.31927711E-02    1.00000000E+00   1.00000000E+00 
D    1    1.000000
   6.26000000E-01    1.00000000E+00 

12    0
S    3    1.000000
   3.38650000E+01    2.54938000E-02 
   5.09479000E+00    1.90373000E-01 
   1.15879000E+00    8.52161000E-01 
S    1    1.000000
   3.25840000E-01    1.00000000E+00 
S    1    1.000000
   1.02741000E-01    1.00000000E+00 
S    1    1.000000
   3.60000000E-02    1.00000000E+00 
P    1    1.000000
   7.50000000E-01    1.00000000E+00 

[MO]
Sym=X
Ene=0.060717
Spin=Alpha
Occup=1
1    -2.10867033e-05
2    -0.000163208006
3    -0.00081441826
4    -0.00279513186
5    -0.0066133033
6    -0.00245830747
7    -0.00881801619
8    4.0013606e-06
9    -2.05770144e-05
10    9.00145873e-16
11    8.46001349e-05
12    9.71761127e-05
13    0.000102826236
14    -2.02223916e-15
15    -0.000107209436
16    -8.75310231e-05
17    9.00938218e-05
18    4.94857507e-15
19    -0.00177436183
20    -8.99184204e-06
21    -0.000633675483
22    -3.0410695e-14
23    2.54649499e-05
24    9.50022611e-05
25    -0.000212568677
26    -5.19267738e-14
27    6.72694677e-05
28    6.69180526e-16
29    4.81616894e-06
30    5.1465225e-16
31    1.09129919e-05
32    9.87230249e-06
33    -3.97777839e-05
34    0.000212742543
35    0.000325646896
36    3.94974715e-07
37    -4.89355952e-06
38    -6.11754247e-16
39    -7.57087984e-06
40    8.06548525e-05
41    -4.26300111e-05
42    -2.42719548e-05
43    1.57366948e-05
44    1.3512585e-05
45    2.75872772e-16
46    3.41644237e-05
47    5.2662268e-05
48    0.000127307018
49    -0.000238145626
50    -1.23302141e-05
51    -4.14628989e-05
52    3.18850416e-16
53    -1.06452964e-06
54    -8.21246227e-06
55    -4.11716896e-05
56    -0.000140569376
57    -0.000340063792
58    -0.000158650192
59    -0.000425396014
60    -1.81309234e-05
61    -1.54828173e-06
62    -1.3002569e-15
63    7.04056535e-05
64    5.22125409e-05
65    3.31006663e-06
66    2.77814694e-16
67    -4.72293715e-05
68    -0.00046499166
69    0.000219999903
70    -3.80060832e-15
71    0.000563100437
72    -0.000123667238
73    -0.000272200456
74    -2.54108978e-14
75    -0.000486685643
76    -0.000189139559
77    -5.80076985e-05
78    -1.03070559e-14
79    5.99927438e-06
80    4.12355775e-16
81    2.20885988e-06
82    7.88661137e-16
83    4.40507913e-05
84    -4.55954635e-09
85    -2.22501825e-08
86    -1.99240442e-07
87    -3.40448794e-07
88    -4.08811134e-06
89    -1.26513238e-05
90    5.19822545e-06
91    -1.21250797e-06
92    9.85950934e-07
93    -5.64123943e-16
94    3.48321523e-05
95    1.88385578e-05
96    -7.59975967e-07
97    -8.03243118e-16
98    -0.000170737089
99    -7.93742665e-05
100    6.25747058e-05
101    -3.60351521e-15
102    -0.000746151264
103    -0.000233012561
104    5.9095558e-05
105    3.46746224e-15
106    -0.000187911636
107    5.50728903e-05
108    0.000207753172
109    -1.28606529e-14
110    5.27299911e-06
111    7.01905991e-16
112    1.47351945e-06
113    -8.00636485e-17
114    5.10589618e-06
115    0.00110933237
116    0.00858788351
117    0.0428413246
118    0.147081946
119    0.34748358
120    0.126422714
121    0.465386837
122    -0.000739987266
123    0.000491229417
124    2.08948217e-15
125    0.00162495192
126    0.00080581605
127    -0.000240694602
128    4.75011967e-15
129    0.00152244754
130    -0.000285826254
131    0.000416414757
132    4.06908063e-15
133    -0.00235091539
134    0.000148497392
135    0.00241175474
136    -3.39456113e-14
137    -0.000260625109
138    -0.000301274449
139    4.68539319e-05
140    -1.22453752e-15
141    0.0003343429
142    2.143228e-16
143    -0.000254425511
144    1.72430681e-16
145    -4.87892055e-05
146    -1.10619123e-07
147    -7.37575519e-07
148    -4.55299484e-06
149    -1.24912089e-05
150    -5.58129806e-05
151    -0.000155434474
152    -7.25377736e-05
153    -0.000205546094
154    -0.000137475113
155    1.85731433e-15
156    0.000643563656
157    -0.00055821871
158    -0.00037134594
159    1.72211e-15
160    -0.000267149183
161    0.000228923217
162    0.000115104381
163    2.41341225e-15
164    -0.000362968651
165    -7.07931323e-05
166    -0.000188501319
167    1.23696714e-14
168    -0.00221222067
169    0.000591957075
170    6.55258584e-05
171    -7.50869458e-15
172    0.000256479056
173    -2.34199813e-16
174    -0.000114589666
175    -3.94141146e-16
176    0.000114137035
177    -4.47560072e-07
178    -3.22436209e-06
179    -1.72248906e-05
180    -5.34580283e-05
181    -0.000177633428
182    -0.000283495932
183    -0.000118714849
184    4.49513734e-05
185    -3.87847633e-05
186    -1.27322285e-16
187    0.00056769877
188    0.000695123396
189    -0.000328161936
190    4.6542687e-15
191    5.12579432e-05
192    -0.000161033823
193    -0.000157457849
194    -5.60064247e-15
195    -0.00125332749
196    -0.00101884396
197    -7.09755801e-06
198    2.77107584e-14
199    0.000419581239
200    0.000656124049
201    9.3990581e-05
202    1.44695395e-14
203    -0.000268782863
204    -8.29158603e-17
205    -0.000123595071
206    7.95267634e-16
207    0.000215704451
208    1.99355368e-08
209    1.86965746e-07
210    6.65837025e-07
211    3.23690568e-06
212    -9.71710316e-07
213    -2.88879318e-05
214    3.01426773e-05
215    -8.35564172e-06
216    -9.40736596e-07
217    -1.73126832e-15
218    5.66615089e-05
219    1.39697603e-05
220    1.6800022e-05
221    -1.78299922e-16
222    -8.98378999e-06
223    -2.58708607e-05
224    3.47319522e-05
225    -6.14027039e-15
226    0.000141325146
227    0.000465079834
228    7.11714996e-05
229    1.10488939e-14
230    0.000746219028
231    -1.60766235e-05
232    0.000350475775
233    4.51237533e-14
234    -3.09432605e-06
235    2.35345353e-16
236    -1.32805362e-06
237    1.27034236e-16
238    -6.65698619e-06
239    1.80271301e-06
240    1.39172318e-05
241    6.96175579e-05
242    0.000237710363
243    0.00056722949
244    0.000168588699
245    0.000712499553
246    1.33571463e-06
247    9.07555123e-05
248    1.29169793e-15
249    0.000290879259
250    7.87867597e-05
251    0.00049119521
252    2.45696877e-15
253    -0.000183938715
254    3.90088965e-05
255    -0.000267778705
256    8.83652688e-16
257    0.00600415171
258    -0.000263849583
259    0.00144268264
260    3.2034285e-14
261    0.000627138192
262    0.000101792979
263    0.000367643164
264    3.10640587e-14
265    3.21055615e-05
266    7.59955024e-16
267    -2.30622642e-05
268    2.74627402e-17
269    -0.000286290477
270    2.44447211e-05
271    9.04601503e-05
272    -0.000172860874
273    0.000272328732
274    -3.48115544e-05
275    7.23271234e-05
276    5.1796952e-16
[5D]