[Molden Format]
[Atoms] (Angs)
  C      1    6     -0.00714236     -1.70213747     -0.00000000
  H      2    1     -2.06882847     -1.44022412      0.00000000
  H      3    1     -0.12337987     -2.77567521      0.00000000
  H      4    1      0.04651892      1.98813947     -0.00000000
  C      5    6     -1.21953563      0.40211669      0.00000000
  O      6    8     -2.25921553      1.03043814      0.00000000
  C      7    6      1.28797806      0.34644937     -0.00000000
  O      8    8      2.31273661      1.00537216     -0.00000000
  N      9    7      0.03446295      0.97739857     -0.00000000
  N     10    7     -1.17287765     -0.98229824      0.00000000
  C     11    6      1.20107039     -1.10433419     -0.00000000
  H     12    1      2.11220096     -1.67699125     -0.00000000
[GTO]
1    0
S    1    1.000000
   4.56324000E+03    1.96665000E-03 
S    1    1.000000
   6.82024000E+02    1.52306000E-02 
S    1    1.000000
   1.54973000E+02    7.61269000E-02 
S    1    1.000000
   4.44553000E+01    2.60801000E-01 
S    1    1.000000
   1.30290000E+01    6.16462000E-01 
S    1    1.000000
   1.82773000E+00    2.21006000E-01 
SP   3    1.000000
   2.09642000E+01    1.14660000E-01   4.02487000E-02 
   4.80331000E+00    9.19999000E-01   2.37594000E-01 
   1.45933000E+00   -3.03068000E-03   8.15854000E-01 
SP   1    1.000000
   4.83456000E-01    1.00000000E+00   1.00000000E+00 
SP   1    1.000000
   1.45585000E-01    1.00000000E+00   1.00000000E+00 
SP   1    1.000000
   4.38000000E-02    1.00000000E+00   1.00000000E+00 
SP   1    1.000000
   1.31927711E-02    1.00000000E+00   1.00000000E+00 
D    1    1.000000
   6.26000000E-01    1.00000000E+00 

2    0
S    3    1.000000
   3.38650000E+01    2.54938000E-02 
   5.09479000E+00    1.90373000E-01 
   1.15879000E+00    8.52161000E-01 
S    1    1.000000
   3.25840000E-01    1.00000000E+00 
S    1    1.000000
   1.02741000E-01    1.00000000E+00 
S    1    1.000000
   3.60000000E-02    1.00000000E+00 
P    1    1.000000
   7.50000000E-01    1.00000000E+00 

3    0
S    3    1.000000
   3.38650000E+01    2.54938000E-02 
   5.09479000E+00    1.90373000E-01 
   1.15879000E+00    8.52161000E-01 
S    1    1.000000
   3.25840000E-01    1.00000000E+00 
S    1    1.000000
   1.02741000E-01    1.00000000E+00 
S    1    1.000000
   3.60000000E-02    1.00000000E+00 
P    1    1.000000
   7.50000000E-01    1.00000000E+00 

4    0
S    3    1.000000
   3.38650000E+01    2.54938000E-02 
   5.09479000E+00    1.90373000E-01 
   1.15879000E+00    8.52161000E-01 
S    1    1.000000
   3.25840000E-01    1.00000000E+00 
S    1    1.000000
   1.02741000E-01    1.00000000E+00 
S    1    1.000000
   3.60000000E-02    1.00000000E+00 
P    1    1.000000
   7.50000000E-01    1.00000000E+00 

5    0
S    1    1.000000
   4.56324000E+03    1.96665000E-03 
S    1    1.000000
   6.82024000E+02    1.52306000E-02 
S    1    1.000000
   1.54973000E+02    7.61269000E-02 
S    1    1.000000
   4.44553000E+01    2.60801000E-01 
S    1    1.000000
   1.30290000E+01    6.16462000E-01 
S    1    1.000000
   1.82773000E+00    2.21006000E-01 
SP   3    1.000000
   2.09642000E+01    1.14660000E-01   4.02487000E-02 
   4.80331000E+00    9.19999000E-01   2.37594000E-01 
   1.45933000E+00   -3.03068000E-03   8.15854000E-01 
SP   1    1.000000
   4.83456000E-01    1.00000000E+00   1.00000000E+00 
SP   1    1.000000
   1.45585000E-01    1.00000000E+00   1.00000000E+00 
SP   1    1.000000
   4.38000000E-02    1.00000000E+00   1.00000000E+00 
SP   1    1.000000
   1.31927711E-02    1.00000000E+00   1.00000000E+00 
D    1    1.000000
   6.26000000E-01    1.00000000E+00 

6    0
S    1    1.000000
   8.58850000E+03    1.89515000E-03 
S    1    1.000000
   1.29723000E+03    1.43859000E-02 
S    1    1.000000
   2.99296000E+02    7.07320000E-02 
S    1    1.000000
   8.73771000E+01    2.40001000E-01 
S    1    1.000000
   2.56789000E+01    5.94797000E-01 
S    1    1.000000
   3.74004000E+00    2.80802000E-01 
SP   3    1.000000
   4.21175000E+01    1.13889000E-01   3.65114000E-02 
   9.62837000E+00    9.20811000E-01   2.37153000E-01 
   2.85332000E+00   -3.27447000E-03   8.19702000E-01 
SP   1    1.000000
   9.05661000E-01    1.00000000E+00   1.00000000E+00 
SP   1    1.000000
   2.55611000E-01    1.00000000E+00   1.00000000E+00 
SP   1    1.000000
   8.45000000E-02    1.00000000E+00   1.00000000E+00 
SP   1    1.000000
   2.54518072E-02    1.00000000E+00   1.00000000E+00 
D    1    1.000000
   1.29200000E+00    1.00000000E+00 

7    0
S    1    1.000000
   4.56324000E+03    1.96665000E-03 
S    1    1.000000
   6.82024000E+02    1.52306000E-02 
S    1    1.000000
   1.54973000E+02    7.61269000E-02 
S    1    1.000000
   4.44553000E+01    2.60801000E-01 
S    1    1.000000
   1.30290000E+01    6.16462000E-01 
S    1    1.000000
   1.82773000E+00    2.21006000E-01 
SP   3    1.000000
   2.09642000E+01    1.14660000E-01   4.02487000E-02 
   4.80331000E+00    9.19999000E-01   2.37594000E-01 
   1.45933000E+00   -3.03068000E-03   8.15854000E-01 
SP   1    1.000000
   4.83456000E-01    1.00000000E+00   1.00000000E+00 
SP   1    1.000000
   1.45585000E-01    1.00000000E+00   1.00000000E+00 
SP   1    1.000000
   4.38000000E-02    1.00000000E+00   1.00000000E+00 
SP   1    1.000000
   1.31927711E-02    1.00000000E+00   1.00000000E+00 
D    1    1.000000
   6.26000000E-01    1.00000000E+00 

8    0
S    1    1.000000
   8.58850000E+03    1.89515000E-03 
S    1    1.000000
   1.29723000E+03    1.43859000E-02 
S    1    1.000000
   2.99296000E+02    7.07320000E-02 
S    1    1.000000
   8.73771000E+01    2.40001000E-01 
S    1    1.000000
   2.56789000E+01    5.94797000E-01 
S    1    1.000000
   3.74004000E+00    2.80802000E-01 
SP   3    1.000000
   4.21175000E+01    1.13889000E-01   3.65114000E-02 
   9.62837000E+00    9.20811000E-01   2.37153000E-01 
   2.85332000E+00   -3.27447000E-03   8.19702000E-01 
SP   1    1.000000
   9.05661000E-01    1.00000000E+00   1.00000000E+00 
SP   1    1.000000
   2.55611000E-01    1.00000000E+00   1.00000000E+00 
SP   1    1.000000
   8.45000000E-02    1.00000000E+00   1.00000000E+00 
SP   1    1.000000
   2.54518072E-02    1.00000000E+00   1.00000000E+00 
D    1    1.000000
   1.29200000E+00    1.00000000E+00 

9    0
S    1    1.000000
   6.29348000E+03    1.96979000E-03 
S    1    1.000000
   9.49044000E+02    1.49613000E-02 
S    1    1.000000
   2.18776000E+02    7.35006000E-02 
S    1    1.000000
   6.36916000E+01    2.48937000E-01 
S    1    1.000000
   1.88282000E+01    6.02460000E-01 
S    1    1.000000
   2.72023000E+00    2.56202000E-01 
SP   3    1.000000
   3.06331000E+01    1.11906000E-01   3.83119000E-02 
   7.02614000E+00    9.21666000E-01   2.37403000E-01 
   2.11205000E+00   -2.56919000E-03   8.17592000E-01 
SP   1    1.000000
   6.84009000E-01    1.00000000E+00   1.00000000E+00 
SP   1    1.000000
   2.00878000E-01    1.00000000E+00   1.00000000E+00 
SP   1    1.000000
   6.39000000E-02    1.00000000E+00   1.00000000E+00 
SP   1    1.000000
   1.92469880E-02    1.00000000E+00   1.00000000E+00 
D    1    1.000000
   9.13000000E-01    1.00000000E+00 

10    0
S    1    1.000000
   6.29348000E+03    1.96979000E-03 
S    1    1.000000
   9.49044000E+02    1.49613000E-02 
S    1    1.000000
   2.18776000E+02    7.35006000E-02 
S    1    1.000000
   6.36916000E+01    2.48937000E-01 
S    1    1.000000
   1.88282000E+01    6.02460000E-01 
S    1    1.000000
   2.72023000E+00    2.56202000E-01 
SP   3    1.000000
   3.06331000E+01    1.11906000E-01   3.83119000E-02 
   7.02614000E+00    9.21666000E-01   2.37403000E-01 
   2.11205000E+00   -2.56919000E-03   8.17592000E-01 
SP   1    1.000000
   6.84009000E-01    1.00000000E+00   1.00000000E+00 
SP   1    1.000000
   2.00878000E-01    1.00000000E+00   1.00000000E+00 
SP   1    1.000000
   6.39000000E-02    1.00000000E+00   1.00000000E+00 
SP   1    1.000000
   1.92469880E-02    1.00000000E+00   1.00000000E+00 
D    1    1.000000
   9.13000000E-01    1.00000000E+00 

11    0
S    1    1.000000
   4.56324000E+03    1.96665000E-03 
S    1    1.000000
   6.82024000E+02    1.52306000E-02 
S    1    1.000000
   1.54973000E+02    7.61269000E-02 
S    1    1.000000
   4.44553000E+01    2.60801000E-01 
S    1    1.000000
   1.30290000E+01    6.16462000E-01 
S    1    1.000000
   1.82773000E+00    2.21006000E-01 
SP   3    1.000000
   2.09642000E+01    1.14660000E-01   4.02487000E-02 
   4.80331000E+00    9.19999000E-01   2.37594000E-01 
   1.45933000E+00   -3.03068000E-03   8.15854000E-01 
SP   1    1.000000
   4.83456000E-01    1.00000000E+00   1.00000000E+00 
SP   1    1.000000
   1.45585000E-01    1.00000000E+00   1.00000000E+00 
SP   1    1.000000
   4.38000000E-02    1.00000000E+00   1.00000000E+00 
SP   1    1.000000
   1.31927711E-02    1.00000000E+00   1.00000000E+00 
D    1    1.000000
   6.26000000E-01    1.00000000E+00 

12    0
S    3    1.000000
   3.38650000E+01    2.54938000E-02 
   5.09479000E+00    1.90373000E-01 
   1.15879000E+00    8.52161000E-01 
S    1    1.000000
   3.25840000E-01    1.00000000E+00 
S    1    1.000000
   1.02741000E-01    1.00000000E+00 
S    1    1.000000
   3.60000000E-02    1.00000000E+00 
P    1    1.000000
   7.50000000E-01    1.00000000E+00 

[MO]
Sym=X
Ene=8.7e-05
Spin=Alpha
Occup=1
1    -4.72228149e-05
2    -0.000365542474
3    -0.00182365051
4    -0.00625990885
5    -0.0147963666
6    -0.00534607999
7    -0.0197453871
8    -3.58716722e-05
9    -6.25204578e-05
10    -1.9318979e-15
11    -0.000489879631
12    -0.000550303874
13    -0.00026596846
14    6.93524996e-16
15    0.000596405118
16    0.000308854784
17    0.000298319109
18    -4.08454752e-15
19    0.00398445994
20    0.000311890762
21    0.00178002574
22    -2.49437448e-14
23    0.000262548218
24    -0.000134436436
25    0.000342164853
26    1.04820886e-13
27    -0.000294878089
28    -2.15621291e-16
29    3.22277138e-05
30    1.61768228e-16
31    -0.000164044536
32    -9.5108769e-07
33    -1.66086206e-05
34    -0.000188619264
35    -0.000376853903
36    -5.61333709e-07
37    1.30840629e-05
38    -8.13862768e-16
39    -3.31366554e-05
40    -0.000119248348
41    0.000302711405
42    0.0008063929
43    -5.70330186e-05
44    -7.06894769e-05
45    -9.01959005e-16
46    -1.99558795e-05
47    -4.07145797e-05
48    -0.000144508623
49    -7.68340444e-05
50    6.06902247e-07
51    1.12821031e-05
52    1.24074482e-15
53    0.000383425953
54    0.00296824508
55    0.0148076674
56    0.0508365749
57    0.120113987
58    0.0437304316
59    0.16082776
60    0.000235881486
61    -0.000158566785
62    1.17793451e-18
63    0.00046085098
64    -0.000293709785
65    0.000179985423
66    -2.21025217e-17
67    0.000948917367
68    0.000794638018
69    -0.000416219309
70    1.96479044e-15
71    -0.00057762611
72    -6.36291875e-06
73    0.000354978647
74    -5.55278514e-14
75    -5.69759096e-05
76    0.000146228789
77    3.626362e-05
78    -5.38800575e-14
79    -0.000101211641
80    5.15715689e-16
81    -9.19433956e-05
82    5.22153416e-16
83    2.97226818e-05
84    -4.41301926e-08
85    -3.17650308e-07
86    -1.75218019e-06
87    -5.40099043e-06
88    -1.71261497e-05
89    -3.49917027e-05
90    -3.89952143e-05
91    7.6073194e-05
92    -4.54996233e-05
93    9.06261955e-17
94    0.000165554998
95    0.000162240257
96    -0.000104976048
97    -5.99441204e-16
98    0.00010208696
99    7.74834157e-06
100    -1.31425986e-05
101    -4.8667553e-17
102    0.000954833931
103    0.000341852922
104    -0.000158942765
105    3.20769678e-15
106    -3.49674157e-05
107    -0.000106046356
108    -0.000166514442
109    3.90669785e-14
110    -8.53532488e-05
111    -1.44360504e-16
112    -4.19315319e-05
113    -1.10834554e-16
114    4.00333131e-05
115    -0.00065381041
116    -0.00506148172
117    -0.0252494022
118    -0.086685995
119    -0.204789295
120    -0.0744200121
121    -0.274278599
122    0.000446850774
123    -0.000234087894
124    1.5240668e-15
125    -0.00135195644
126    -0.000464538129
127    0.000614947777
128    -2.6215384e-16
129    -0.00044573015
130    -6.51631098e-05
131    -0.000862389473
132    6.40214591e-15
133    0.00391485638
134    -0.000830055428
135    -0.00250619413
136    -2.21883701e-14
137    0.000579998377
138    0.000170949766
139    -6.6766801e-05
140    4.19906389e-14
141    -0.000244927369
142    2.59599864e-16
143    0.000204752008
144    -6.45992261e-16
145    0.00030220397
146    1.12495332e-06
147    8.474588e-06
148    4.22592983e-05
149    0.000141471247
150    0.000370717437
151    0.000271516969
152    0.000505966783
153    0.000114509736
154    6.31379869e-05
155    -3.46318795e-16
156    -0.000415716882
157    0.00035571259
158    0.000251413499
159    1.92630897e-15
160    0.00024727171
161    -0.000205662991
162    -5.09792267e-05
163    3.85222444e-16
164    0.000612733698
165    3.1120186e-05
166    0.000115173338
167    2.21268342e-15
168    0.00261711657
169    -0.000605249058
170    -7.28291426e-05
171    2.65271613e-15
172    -0.000173192787
173    -2.1387876e-16
174    6.89154472e-05
175    -1.24895153e-16
176    -4.69477402e-05
177    -1.34880786e-06
178    -1.03662434e-05
179    -5.00774815e-05
180    -0.000172630223
181    -0.000392445509
182    -7.5060926e-05
183    -0.00062519768
184    -3.42143625e-05
185    -2.84124466e-06
186    3.10220903e-16
187    -0.000192363068
188    -0.000690403198
189    0.000122085009
190    3.61930021e-15
191    -0.000268826057
192    0.000306785324
193    0.000247297283
194    -5.85964185e-15
195    0.000122033272
196    0.000943813369
197    0.000347217168
198    2.82579036e-14
199    -0.000821958491
200    -0.000839015908
201    0.000104107176
202    3.19034558e-14
203    0.000262635108
204    4.64147447e-17
205    4.23465768e-05
206    -2.72001049e-17
207    -6.80758505e-05
208    1.1077574e-06
209    8.41676128e-06
210    4.13312395e-05
211    0.000139785865
212    0.000341871093
213    0.000145575853
214    0.000448702218
215    2.34233912e-05
216    2.45721838e-05
217    -2.05429671e-15
218    8.13446769e-05
219    -0.000129483427
220    0.000288191409
221    2.01291623e-15
222    -0.00023328702
223    -7.59667379e-05
224    -0.000221250864
225    -1.14866965e-14
226    -0.000875922652
227    -0.00051983224
228    -0.000335919459
229    3.88461471e-14
230    -0.000788102978
231    -5.37909678e-05
232    -0.000270024753
233    -2.59495082e-14
234    2.96789191e-05
235    4.37370086e-17
236    -1.84554579e-05
237    -7.96619594e-17
238    -0.000144658298
239    -0.000808453524
240    -0.00625879606
241    -0.0312209726
242    -0.107195528
243    -0.253225533
244    -0.0926026725
245    -0.338923106
246    0.000142847361
247    -0.000219358733
248    -7.16323487e-16
249    -0.00148316367
250    -2.71454004e-05
251    -0.000170009722
252    1.92821645e-15
253    -0.00115807325
254    0.000483115885
255    -0.000248634874
256    -4.65598077e-15
257    -0.00883575703
258    0.0012084575
259    -0.00174938669
260    3.45025489e-14
261    -0.000577569089
262    -9.27031162e-05
263    -0.000385473125
264    -9.20654312e-14
265    -6.82974879e-05
266    8.78698046e-17
267    8.08270678e-05
268    4.79223598e-16
269    0.000100537933
270    -0.000289622492
271    -0.000364546109
272    -8.20451638e-05
273    -0.000526442229
274    0.000214435728
275    -0.00015102454
276    2.06786364e-16
[5D]