[Molden Format]
[Atoms] (Angs)
  C      1    6     -0.00714236     -1.70213747     -0.00000000
  H      2    1     -2.06882847     -1.44022412      0.00000000
  H      3    1     -0.12337987     -2.77567521      0.00000000
  H      4    1      0.04651892      1.98813947     -0.00000000
  C      5    6     -1.21953563      0.40211669      0.00000000
  O      6    8     -2.25921553      1.03043814      0.00000000
  C      7    6      1.28797806      0.34644937     -0.00000000
  O      8    8      2.31273661      1.00537216     -0.00000000
  N      9    7      0.03446295      0.97739857     -0.00000000
  N     10    7     -1.17287765     -0.98229824      0.00000000
  C     11    6      1.20107039     -1.10433419     -0.00000000
  H     12    1      2.11220096     -1.67699125     -0.00000000
[GTO]
1    0
S    1    1.000000
   4.56324000E+03    1.96665000E-03 
S    1    1.000000
   6.82024000E+02    1.52306000E-02 
S    1    1.000000
   1.54973000E+02    7.61269000E-02 
S    1    1.000000
   4.44553000E+01    2.60801000E-01 
S    1    1.000000
   1.30290000E+01    6.16462000E-01 
S    1    1.000000
   1.82773000E+00    2.21006000E-01 
SP   3    1.000000
   2.09642000E+01    1.14660000E-01   4.02487000E-02 
   4.80331000E+00    9.19999000E-01   2.37594000E-01 
   1.45933000E+00   -3.03068000E-03   8.15854000E-01 
SP   1    1.000000
   4.83456000E-01    1.00000000E+00   1.00000000E+00 
SP   1    1.000000
   1.45585000E-01    1.00000000E+00   1.00000000E+00 
SP   1    1.000000
   4.38000000E-02    1.00000000E+00   1.00000000E+00 
SP   1    1.000000
   1.31927711E-02    1.00000000E+00   1.00000000E+00 
D    1    1.000000
   6.26000000E-01    1.00000000E+00 

2    0
S    3    1.000000
   3.38650000E+01    2.54938000E-02 
   5.09479000E+00    1.90373000E-01 
   1.15879000E+00    8.52161000E-01 
S    1    1.000000
   3.25840000E-01    1.00000000E+00 
S    1    1.000000
   1.02741000E-01    1.00000000E+00 
S    1    1.000000
   3.60000000E-02    1.00000000E+00 
P    1    1.000000
   7.50000000E-01    1.00000000E+00 

3    0
S    3    1.000000
   3.38650000E+01    2.54938000E-02 
   5.09479000E+00    1.90373000E-01 
   1.15879000E+00    8.52161000E-01 
S    1    1.000000
   3.25840000E-01    1.00000000E+00 
S    1    1.000000
   1.02741000E-01    1.00000000E+00 
S    1    1.000000
   3.60000000E-02    1.00000000E+00 
P    1    1.000000
   7.50000000E-01    1.00000000E+00 

4    0
S    3    1.000000
   3.38650000E+01    2.54938000E-02 
   5.09479000E+00    1.90373000E-01 
   1.15879000E+00    8.52161000E-01 
S    1    1.000000
   3.25840000E-01    1.00000000E+00 
S    1    1.000000
   1.02741000E-01    1.00000000E+00 
S    1    1.000000
   3.60000000E-02    1.00000000E+00 
P    1    1.000000
   7.50000000E-01    1.00000000E+00 

5    0
S    1    1.000000
   4.56324000E+03    1.96665000E-03 
S    1    1.000000
   6.82024000E+02    1.52306000E-02 
S    1    1.000000
   1.54973000E+02    7.61269000E-02 
S    1    1.000000
   4.44553000E+01    2.60801000E-01 
S    1    1.000000
   1.30290000E+01    6.16462000E-01 
S    1    1.000000
   1.82773000E+00    2.21006000E-01 
SP   3    1.000000
   2.09642000E+01    1.14660000E-01   4.02487000E-02 
   4.80331000E+00    9.19999000E-01   2.37594000E-01 
   1.45933000E+00   -3.03068000E-03   8.15854000E-01 
SP   1    1.000000
   4.83456000E-01    1.00000000E+00   1.00000000E+00 
SP   1    1.000000
   1.45585000E-01    1.00000000E+00   1.00000000E+00 
SP   1    1.000000
   4.38000000E-02    1.00000000E+00   1.00000000E+00 
SP   1    1.000000
   1.31927711E-02    1.00000000E+00   1.00000000E+00 
D    1    1.000000
   6.26000000E-01    1.00000000E+00 

6    0
S    1    1.000000
   8.58850000E+03    1.89515000E-03 
S    1    1.000000
   1.29723000E+03    1.43859000E-02 
S    1    1.000000
   2.99296000E+02    7.07320000E-02 
S    1    1.000000
   8.73771000E+01    2.40001000E-01 
S    1    1.000000
   2.56789000E+01    5.94797000E-01 
S    1    1.000000
   3.74004000E+00    2.80802000E-01 
SP   3    1.000000
   4.21175000E+01    1.13889000E-01   3.65114000E-02 
   9.62837000E+00    9.20811000E-01   2.37153000E-01 
   2.85332000E+00   -3.27447000E-03   8.19702000E-01 
SP   1    1.000000
   9.05661000E-01    1.00000000E+00   1.00000000E+00 
SP   1    1.000000
   2.55611000E-01    1.00000000E+00   1.00000000E+00 
SP   1    1.000000
   8.45000000E-02    1.00000000E+00   1.00000000E+00 
SP   1    1.000000
   2.54518072E-02    1.00000000E+00   1.00000000E+00 
D    1    1.000000
   1.29200000E+00    1.00000000E+00 

7    0
S    1    1.000000
   4.56324000E+03    1.96665000E-03 
S    1    1.000000
   6.82024000E+02    1.52306000E-02 
S    1    1.000000
   1.54973000E+02    7.61269000E-02 
S    1    1.000000
   4.44553000E+01    2.60801000E-01 
S    1    1.000000
   1.30290000E+01    6.16462000E-01 
S    1    1.000000
   1.82773000E+00    2.21006000E-01 
SP   3    1.000000
   2.09642000E+01    1.14660000E-01   4.02487000E-02 
   4.80331000E+00    9.19999000E-01   2.37594000E-01 
   1.45933000E+00   -3.03068000E-03   8.15854000E-01 
SP   1    1.000000
   4.83456000E-01    1.00000000E+00   1.00000000E+00 
SP   1    1.000000
   1.45585000E-01    1.00000000E+00   1.00000000E+00 
SP   1    1.000000
   4.38000000E-02    1.00000000E+00   1.00000000E+00 
SP   1    1.000000
   1.31927711E-02    1.00000000E+00   1.00000000E+00 
D    1    1.000000
   6.26000000E-01    1.00000000E+00 

8    0
S    1    1.000000
   8.58850000E+03    1.89515000E-03 
S    1    1.000000
   1.29723000E+03    1.43859000E-02 
S    1    1.000000
   2.99296000E+02    7.07320000E-02 
S    1    1.000000
   8.73771000E+01    2.40001000E-01 
S    1    1.000000
   2.56789000E+01    5.94797000E-01 
S    1    1.000000
   3.74004000E+00    2.80802000E-01 
SP   3    1.000000
   4.21175000E+01    1.13889000E-01   3.65114000E-02 
   9.62837000E+00    9.20811000E-01   2.37153000E-01 
   2.85332000E+00   -3.27447000E-03   8.19702000E-01 
SP   1    1.000000
   9.05661000E-01    1.00000000E+00   1.00000000E+00 
SP   1    1.000000
   2.55611000E-01    1.00000000E+00   1.00000000E+00 
SP   1    1.000000
   8.45000000E-02    1.00000000E+00   1.00000000E+00 
SP   1    1.000000
   2.54518072E-02    1.00000000E+00   1.00000000E+00 
D    1    1.000000
   1.29200000E+00    1.00000000E+00 

9    0
S    1    1.000000
   6.29348000E+03    1.96979000E-03 
S    1    1.000000
   9.49044000E+02    1.49613000E-02 
S    1    1.000000
   2.18776000E+02    7.35006000E-02 
S    1    1.000000
   6.36916000E+01    2.48937000E-01 
S    1    1.000000
   1.88282000E+01    6.02460000E-01 
S    1    1.000000
   2.72023000E+00    2.56202000E-01 
SP   3    1.000000
   3.06331000E+01    1.11906000E-01   3.83119000E-02 
   7.02614000E+00    9.21666000E-01   2.37403000E-01 
   2.11205000E+00   -2.56919000E-03   8.17592000E-01 
SP   1    1.000000
   6.84009000E-01    1.00000000E+00   1.00000000E+00 
SP   1    1.000000
   2.00878000E-01    1.00000000E+00   1.00000000E+00 
SP   1    1.000000
   6.39000000E-02    1.00000000E+00   1.00000000E+00 
SP   1    1.000000
   1.92469880E-02    1.00000000E+00   1.00000000E+00 
D    1    1.000000
   9.13000000E-01    1.00000000E+00 

10    0
S    1    1.000000
   6.29348000E+03    1.96979000E-03 
S    1    1.000000
   9.49044000E+02    1.49613000E-02 
S    1    1.000000
   2.18776000E+02    7.35006000E-02 
S    1    1.000000
   6.36916000E+01    2.48937000E-01 
S    1    1.000000
   1.88282000E+01    6.02460000E-01 
S    1    1.000000
   2.72023000E+00    2.56202000E-01 
SP   3    1.000000
   3.06331000E+01    1.11906000E-01   3.83119000E-02 
   7.02614000E+00    9.21666000E-01   2.37403000E-01 
   2.11205000E+00   -2.56919000E-03   8.17592000E-01 
SP   1    1.000000
   6.84009000E-01    1.00000000E+00   1.00000000E+00 
SP   1    1.000000
   2.00878000E-01    1.00000000E+00   1.00000000E+00 
SP   1    1.000000
   6.39000000E-02    1.00000000E+00   1.00000000E+00 
SP   1    1.000000
   1.92469880E-02    1.00000000E+00   1.00000000E+00 
D    1    1.000000
   9.13000000E-01    1.00000000E+00 

11    0
S    1    1.000000
   4.56324000E+03    1.96665000E-03 
S    1    1.000000
   6.82024000E+02    1.52306000E-02 
S    1    1.000000
   1.54973000E+02    7.61269000E-02 
S    1    1.000000
   4.44553000E+01    2.60801000E-01 
S    1    1.000000
   1.30290000E+01    6.16462000E-01 
S    1    1.000000
   1.82773000E+00    2.21006000E-01 
SP   3    1.000000
   2.09642000E+01    1.14660000E-01   4.02487000E-02 
   4.80331000E+00    9.19999000E-01   2.37594000E-01 
   1.45933000E+00   -3.03068000E-03   8.15854000E-01 
SP   1    1.000000
   4.83456000E-01    1.00000000E+00   1.00000000E+00 
SP   1    1.000000
   1.45585000E-01    1.00000000E+00   1.00000000E+00 
SP   1    1.000000
   4.38000000E-02    1.00000000E+00   1.00000000E+00 
SP   1    1.000000
   1.31927711E-02    1.00000000E+00   1.00000000E+00 
D    1    1.000000
   6.26000000E-01    1.00000000E+00 

12    0
S    3    1.000000
   3.38650000E+01    2.54938000E-02 
   5.09479000E+00    1.90373000E-01 
   1.15879000E+00    8.52161000E-01 
S    1    1.000000
   3.25840000E-01    1.00000000E+00 
S    1    1.000000
   1.02741000E-01    1.00000000E+00 
S    1    1.000000
   3.60000000E-02    1.00000000E+00 
P    1    1.000000
   7.50000000E-01    1.00000000E+00 

[MO]
Sym=X
Ene=0.041394
Spin=Alpha
Occup=1
1    1.91895549e-05
2    0.000148506879
3    0.000741156593
4    0.00254316122
5    0.00602133876
6    0.00223419516
7    0.00800397814
8    2.28685388e-05
9    3.38954903e-05
10    -8.0304562e-16
11    8.90238144e-06
12    7.58586929e-06
13    -4.52036721e-05
14    1.71659856e-15
15    -8.29186878e-05
16    3.24370498e-05
17    -0.000204525597
18    -5.00331918e-15
19    0.00126353162
20    -1.49037863e-05
21    0.000364765937
22    4.08759725e-14
23    -6.53597186e-05
24    -9.21875876e-05
25    0.000160367417
26    3.78728393e-14
27    -1.12673035e-05
28    -7.1316725e-16
29    -8.68284484e-06
30    -6.52789011e-16
31    2.82725917e-05
32    -8.38814054e-06
33    4.97632604e-05
34    -0.000190778359
35    -0.000261025646
36    2.41936675e-06
37    3.91021937e-06
38    8.70496024e-16
39    1.23229779e-05
40    -6.74340924e-05
41    -3.52070627e-05
42    -0.000106425801
43    -4.59832492e-06
44    -9.30851633e-07
45    -2.67715736e-16
46    -3.1382142e-05
47    -4.43959511e-05
48    -0.000120650731
49    0.000281241745
50    1.31962685e-05
51    3.99837248e-05
52    -5.20661351e-16
53    6.6358331e-07
54    5.11372569e-06
55    2.56760295e-05
56    8.75149358e-05
57    0.000213350047
58    0.000107189376
59    0.000260560647
60    1.68147894e-05
61    2.43120357e-06
62    1.65843582e-15
63    -5.6418769e-05
64    -4.94015803e-05
65    -6.38482699e-06
66    -2.37470025e-16
67    -6.71871513e-05
68    0.000365969097
69    -0.00016662009
70    4.76200125e-15
71    -0.000537937811
72    8.21977688e-05
73    0.000250724508
74    4.02767957e-14
75    0.000493165755
76    0.000172107434
77    6.46016414e-05
78    2.20587684e-14
79    -5.24057487e-06
80    -4.98345185e-16
81    -2.95370653e-07
82    -1.00163069e-15
83    -4.32006976e-05
84    -1.84086738e-08
85    -1.50779257e-07
86    -6.61312046e-07
87    -2.5427295e-06
88    -3.49618277e-06
89    7.55974467e-06
90    -1.45009863e-05
91    6.06281265e-07
92    -7.6773212e-07
93    7.08111428e-16
94    -3.05706931e-05
95    -1.62279501e-05
96    -9.1759026e-08
97    1.28095632e-15
98    0.000149267237
99    6.91853337e-05
100    -5.67573486e-05
101    4.20516048e-15
102    0.000629370792
103    0.000204051534
104    -4.16905011e-05
105    -4.08181131e-15
106    0.000160253675
107    -4.44327179e-05
108    -0.000183865263
109    7.45631594e-15
110    -5.17310346e-06
111    -7.32380756e-16
112    -1.17980192e-06
113    1.6606559e-16
114    -4.86047454e-06
115    -0.00109027244
116    -0.0084403265
117    -0.0421052792
118    -0.144554884
119    -0.34151561
120    -0.124275249
121    -0.457392013
122    0.000726083965
123    -0.000497607972
124    -2.84930193e-15
125    -0.00149312281
126    -0.000797813944
127    0.000118243605
128    -5.3807181e-15
129    -0.00161102318
130    0.000377456949
131    -0.000238020329
132    -6.6228768e-15
133    0.00196058734
134    -3.6769003e-06
135    -0.00217371863
136    4.67311887e-14
137    0.000198130281
138    0.000282087848
139    -4.46717889e-05
140    -7.2309001e-15
141    -0.000317212437
142    -2.69401196e-16
143    0.000236389069
144    -2.43331979e-16
145    -1.78911024e-05
146    1.43411684e-06
147    1.08141699e-05
148    5.38972118e-05
149    0.000180657126
150    0.000469771708
151    0.00034339578
152    0.000674327606
153    0.000201426604
154    0.000138300176
155    -2.20143659e-15
156    -0.000612443979
157    0.00054110979
158    0.00035746062
159    -2.76155824e-15
160    0.000224880681
161    -0.00020187466
162    -0.000113054463
163    -2.94644645e-15
164    0.000204126246
165    9.15295072e-05
166    0.000194004953
167    -1.51411905e-14
168    0.00184166212
169    -0.000515373162
170    -4.55390405e-05
171    6.81322616e-15
172    -0.000246883963
173    3.53592883e-16
174    0.000112176279
175    5.12866807e-16
176    -0.000116892411
177    -4.39821794e-07
178    -3.5207082e-06
179    -1.59075991e-05
180    -5.86916881e-05
181    -9.64887155e-05
182    0.000155021239
183    -0.000252665627
184    -4.85031677e-05
185    4.08907169e-05
186    3.38086922e-16
187    -0.000552117199
188    -0.000666389642
189    0.000315392305
190    -5.88100206e-15
191    4.14540697e-06
192    0.000121613934
193    0.000113404091
194    8.36356149e-15
195    0.0013521735
196    0.000953064741
197    -4.82288888e-05
198    -3.88300783e-14
199    -0.000281157138
200    -0.000538001563
201    -0.000128208722
202    -2.23228551e-14
203    0.00025753188
204    1.31137946e-16
205    0.000120568923
206    -9.26771261e-16
207    -0.000208911249
208    2.21953872e-07
209    1.66422508e-06
210    8.33758351e-06
211    2.75844664e-05
212    7.30914815e-05
213    5.19027705e-05
214    7.89583046e-05
215    3.16966455e-06
216    2.56285155e-06
217    2.29886411e-15
218    -4.48908718e-05
219    3.18386321e-06
220    -2.42413347e-05
221    -2.94458823e-16
222    6.52371642e-05
223    5.46457939e-05
224    1.31640439e-06
225    9.03643177e-15
226    4.82803277e-05
227    -0.000377335141
228    -2.03137605e-05
229    -2.08141381e-14
230    -0.000625978042
231    2.54973334e-05
232    -0.000302648175
233    -4.65836342e-14
234    -1.52097778e-06
235    -2.25484833e-16
236    -6.62872603e-07
237    -1.69006162e-16
238    1.39649566e-05
239    0.000205139396
240    0.00158817418
241    0.00792209371
242    0.0272017098
243    0.0642502913
244    0.023536116
245    0.0860521653
246    -3.50998503e-05
247    -4.58296568e-05
248    -1.39339632e-15
249    5.42464196e-05
250    -8.47857864e-05
251    -0.000510136912
252    -3.56993696e-15
253    0.000529109558
254    -0.000187600337
255    0.000376492138
256    6.77289361e-17
257    -0.00503949854
258    7.15741889e-05
259    -0.00122739187
260    -4.641678e-14
261    -0.000566059957
262    -8.1249644e-05
263    -0.000318678512
264    -1.5613044e-14
265    -1.91551716e-05
266    -8.62240519e-16
267    4.8095775e-06
268    -7.33791148e-17
269    0.000296800793
270    4.65558418e-05
271    -4.77026108e-06
272    0.000223362438
273    -0.000180279067
274    -1.54297416e-05
275    -4.2436064e-05
276    -7.00915174e-16
[5D]