[Molden Format]
[Atoms] (Angs)
  C      1    6     -0.00714236     -1.70213747     -0.00000000
  H      2    1     -2.06882847     -1.44022412      0.00000000
  H      3    1     -0.12337987     -2.77567521      0.00000000
  H      4    1      0.04651892      1.98813947     -0.00000000
  C      5    6     -1.21953563      0.40211669      0.00000000
  O      6    8     -2.25921553      1.03043814      0.00000000
  C      7    6      1.28797806      0.34644937     -0.00000000
  O      8    8      2.31273661      1.00537216     -0.00000000
  N      9    7      0.03446295      0.97739857     -0.00000000
  N     10    7     -1.17287765     -0.98229824      0.00000000
  C     11    6      1.20107039     -1.10433419     -0.00000000
  H     12    1      2.11220096     -1.67699125     -0.00000000
[GTO]
1    0
S    1    1.000000
   4.56324000E+03    1.96665000E-03 
S    1    1.000000
   6.82024000E+02    1.52306000E-02 
S    1    1.000000
   1.54973000E+02    7.61269000E-02 
S    1    1.000000
   4.44553000E+01    2.60801000E-01 
S    1    1.000000
   1.30290000E+01    6.16462000E-01 
S    1    1.000000
   1.82773000E+00    2.21006000E-01 
SP   3    1.000000
   2.09642000E+01    1.14660000E-01   4.02487000E-02 
   4.80331000E+00    9.19999000E-01   2.37594000E-01 
   1.45933000E+00   -3.03068000E-03   8.15854000E-01 
SP   1    1.000000
   4.83456000E-01    1.00000000E+00   1.00000000E+00 
SP   1    1.000000
   1.45585000E-01    1.00000000E+00   1.00000000E+00 
SP   1    1.000000
   4.38000000E-02    1.00000000E+00   1.00000000E+00 
SP   1    1.000000
   1.31927711E-02    1.00000000E+00   1.00000000E+00 
D    1    1.000000
   6.26000000E-01    1.00000000E+00 

2    0
S    3    1.000000
   3.38650000E+01    2.54938000E-02 
   5.09479000E+00    1.90373000E-01 
   1.15879000E+00    8.52161000E-01 
S    1    1.000000
   3.25840000E-01    1.00000000E+00 
S    1    1.000000
   1.02741000E-01    1.00000000E+00 
S    1    1.000000
   3.60000000E-02    1.00000000E+00 
P    1    1.000000
   7.50000000E-01    1.00000000E+00 

3    0
S    3    1.000000
   3.38650000E+01    2.54938000E-02 
   5.09479000E+00    1.90373000E-01 
   1.15879000E+00    8.52161000E-01 
S    1    1.000000
   3.25840000E-01    1.00000000E+00 
S    1    1.000000
   1.02741000E-01    1.00000000E+00 
S    1    1.000000
   3.60000000E-02    1.00000000E+00 
P    1    1.000000
   7.50000000E-01    1.00000000E+00 

4    0
S    3    1.000000
   3.38650000E+01    2.54938000E-02 
   5.09479000E+00    1.90373000E-01 
   1.15879000E+00    8.52161000E-01 
S    1    1.000000
   3.25840000E-01    1.00000000E+00 
S    1    1.000000
   1.02741000E-01    1.00000000E+00 
S    1    1.000000
   3.60000000E-02    1.00000000E+00 
P    1    1.000000
   7.50000000E-01    1.00000000E+00 

5    0
S    1    1.000000
   4.56324000E+03    1.96665000E-03 
S    1    1.000000
   6.82024000E+02    1.52306000E-02 
S    1    1.000000
   1.54973000E+02    7.61269000E-02 
S    1    1.000000
   4.44553000E+01    2.60801000E-01 
S    1    1.000000
   1.30290000E+01    6.16462000E-01 
S    1    1.000000
   1.82773000E+00    2.21006000E-01 
SP   3    1.000000
   2.09642000E+01    1.14660000E-01   4.02487000E-02 
   4.80331000E+00    9.19999000E-01   2.37594000E-01 
   1.45933000E+00   -3.03068000E-03   8.15854000E-01 
SP   1    1.000000
   4.83456000E-01    1.00000000E+00   1.00000000E+00 
SP   1    1.000000
   1.45585000E-01    1.00000000E+00   1.00000000E+00 
SP   1    1.000000
   4.38000000E-02    1.00000000E+00   1.00000000E+00 
SP   1    1.000000
   1.31927711E-02    1.00000000E+00   1.00000000E+00 
D    1    1.000000
   6.26000000E-01    1.00000000E+00 

6    0
S    1    1.000000
   8.58850000E+03    1.89515000E-03 
S    1    1.000000
   1.29723000E+03    1.43859000E-02 
S    1    1.000000
   2.99296000E+02    7.07320000E-02 
S    1    1.000000
   8.73771000E+01    2.40001000E-01 
S    1    1.000000
   2.56789000E+01    5.94797000E-01 
S    1    1.000000
   3.74004000E+00    2.80802000E-01 
SP   3    1.000000
   4.21175000E+01    1.13889000E-01   3.65114000E-02 
   9.62837000E+00    9.20811000E-01   2.37153000E-01 
   2.85332000E+00   -3.27447000E-03   8.19702000E-01 
SP   1    1.000000
   9.05661000E-01    1.00000000E+00   1.00000000E+00 
SP   1    1.000000
   2.55611000E-01    1.00000000E+00   1.00000000E+00 
SP   1    1.000000
   8.45000000E-02    1.00000000E+00   1.00000000E+00 
SP   1    1.000000
   2.54518072E-02    1.00000000E+00   1.00000000E+00 
D    1    1.000000
   1.29200000E+00    1.00000000E+00 

7    0
S    1    1.000000
   4.56324000E+03    1.96665000E-03 
S    1    1.000000
   6.82024000E+02    1.52306000E-02 
S    1    1.000000
   1.54973000E+02    7.61269000E-02 
S    1    1.000000
   4.44553000E+01    2.60801000E-01 
S    1    1.000000
   1.30290000E+01    6.16462000E-01 
S    1    1.000000
   1.82773000E+00    2.21006000E-01 
SP   3    1.000000
   2.09642000E+01    1.14660000E-01   4.02487000E-02 
   4.80331000E+00    9.19999000E-01   2.37594000E-01 
   1.45933000E+00   -3.03068000E-03   8.15854000E-01 
SP   1    1.000000
   4.83456000E-01    1.00000000E+00   1.00000000E+00 
SP   1    1.000000
   1.45585000E-01    1.00000000E+00   1.00000000E+00 
SP   1    1.000000
   4.38000000E-02    1.00000000E+00   1.00000000E+00 
SP   1    1.000000
   1.31927711E-02    1.00000000E+00   1.00000000E+00 
D    1    1.000000
   6.26000000E-01    1.00000000E+00 

8    0
S    1    1.000000
   8.58850000E+03    1.89515000E-03 
S    1    1.000000
   1.29723000E+03    1.43859000E-02 
S    1    1.000000
   2.99296000E+02    7.07320000E-02 
S    1    1.000000
   8.73771000E+01    2.40001000E-01 
S    1    1.000000
   2.56789000E+01    5.94797000E-01 
S    1    1.000000
   3.74004000E+00    2.80802000E-01 
SP   3    1.000000
   4.21175000E+01    1.13889000E-01   3.65114000E-02 
   9.62837000E+00    9.20811000E-01   2.37153000E-01 
   2.85332000E+00   -3.27447000E-03   8.19702000E-01 
SP   1    1.000000
   9.05661000E-01    1.00000000E+00   1.00000000E+00 
SP   1    1.000000
   2.55611000E-01    1.00000000E+00   1.00000000E+00 
SP   1    1.000000
   8.45000000E-02    1.00000000E+00   1.00000000E+00 
SP   1    1.000000
   2.54518072E-02    1.00000000E+00   1.00000000E+00 
D    1    1.000000
   1.29200000E+00    1.00000000E+00 

9    0
S    1    1.000000
   6.29348000E+03    1.96979000E-03 
S    1    1.000000
   9.49044000E+02    1.49613000E-02 
S    1    1.000000
   2.18776000E+02    7.35006000E-02 
S    1    1.000000
   6.36916000E+01    2.48937000E-01 
S    1    1.000000
   1.88282000E+01    6.02460000E-01 
S    1    1.000000
   2.72023000E+00    2.56202000E-01 
SP   3    1.000000
   3.06331000E+01    1.11906000E-01   3.83119000E-02 
   7.02614000E+00    9.21666000E-01   2.37403000E-01 
   2.11205000E+00   -2.56919000E-03   8.17592000E-01 
SP   1    1.000000
   6.84009000E-01    1.00000000E+00   1.00000000E+00 
SP   1    1.000000
   2.00878000E-01    1.00000000E+00   1.00000000E+00 
SP   1    1.000000
   6.39000000E-02    1.00000000E+00   1.00000000E+00 
SP   1    1.000000
   1.92469880E-02    1.00000000E+00   1.00000000E+00 
D    1    1.000000
   9.13000000E-01    1.00000000E+00 

10    0
S    1    1.000000
   6.29348000E+03    1.96979000E-03 
S    1    1.000000
   9.49044000E+02    1.49613000E-02 
S    1    1.000000
   2.18776000E+02    7.35006000E-02 
S    1    1.000000
   6.36916000E+01    2.48937000E-01 
S    1    1.000000
   1.88282000E+01    6.02460000E-01 
S    1    1.000000
   2.72023000E+00    2.56202000E-01 
SP   3    1.000000
   3.06331000E+01    1.11906000E-01   3.83119000E-02 
   7.02614000E+00    9.21666000E-01   2.37403000E-01 
   2.11205000E+00   -2.56919000E-03   8.17592000E-01 
SP   1    1.000000
   6.84009000E-01    1.00000000E+00   1.00000000E+00 
SP   1    1.000000
   2.00878000E-01    1.00000000E+00   1.00000000E+00 
SP   1    1.000000
   6.39000000E-02    1.00000000E+00   1.00000000E+00 
SP   1    1.000000
   1.92469880E-02    1.00000000E+00   1.00000000E+00 
D    1    1.000000
   9.13000000E-01    1.00000000E+00 

11    0
S    1    1.000000
   4.56324000E+03    1.96665000E-03 
S    1    1.000000
   6.82024000E+02    1.52306000E-02 
S    1    1.000000
   1.54973000E+02    7.61269000E-02 
S    1    1.000000
   4.44553000E+01    2.60801000E-01 
S    1    1.000000
   1.30290000E+01    6.16462000E-01 
S    1    1.000000
   1.82773000E+00    2.21006000E-01 
SP   3    1.000000
   2.09642000E+01    1.14660000E-01   4.02487000E-02 
   4.80331000E+00    9.19999000E-01   2.37594000E-01 
   1.45933000E+00   -3.03068000E-03   8.15854000E-01 
SP   1    1.000000
   4.83456000E-01    1.00000000E+00   1.00000000E+00 
SP   1    1.000000
   1.45585000E-01    1.00000000E+00   1.00000000E+00 
SP   1    1.000000
   4.38000000E-02    1.00000000E+00   1.00000000E+00 
SP   1    1.000000
   1.31927711E-02    1.00000000E+00   1.00000000E+00 
D    1    1.000000
   6.26000000E-01    1.00000000E+00 

12    0
S    3    1.000000
   3.38650000E+01    2.54938000E-02 
   5.09479000E+00    1.90373000E-01 
   1.15879000E+00    8.52161000E-01 
S    1    1.000000
   3.25840000E-01    1.00000000E+00 
S    1    1.000000
   1.02741000E-01    1.00000000E+00 
S    1    1.000000
   3.60000000E-02    1.00000000E+00 
P    1    1.000000
   7.50000000E-01    1.00000000E+00 

[MO]
Sym=X
Ene=0.000115
Spin=Alpha
Occup=1
1    0.000122551544
2    0.000948685533
3    0.00473282135
4    0.0162474502
5    0.0383977631
6    0.014021625
7    0.0513339693
8    -6.23136612e-05
9    8.3098155e-05
10    -6.77571513e-16
11    0.000324943483
12    0.000375095839
13    6.31556134e-05
14    -1.10690132e-15
15    -2.89889129e-05
16    -0.00018355743
17    -0.000142960705
18    -3.67844812e-15
19    -0.00252973141
20    -0.000482919349
21    -0.00117959575
22    4.21700512e-14
23    -0.000353776739
24    0.000112182512
25    -7.20414406e-05
26    -4.85639136e-14
27    0.00018071887
28    -8.94733389e-16
29    -4.87246266e-05
30    -6.31648613e-16
31    0.000101691238
32    -2.18173376e-05
33    4.33051066e-05
34    -7.78733888e-05
35    -0.000106177597
36    -1.56374434e-05
37    -1.37624622e-05
38    5.55993987e-16
39    4.74584806e-05
40    3.35608414e-05
41    -0.000129554202
42    -0.000918092732
43    2.94305387e-05
44    4.86455102e-05
45    -1.52281215e-18
46    -3.11489461e-05
47    -4.7428242e-05
48    4.83897308e-05
49    0.000301154908
50    1.39199966e-05
51    5.31681062e-05
52    -1.11406227e-15
53    -0.0007957891
54    -0.00616058021
55    -0.0307327068
56    -0.105511334
57    -0.249275793
58    -0.0906671071
59    -0.3338472
60    -0.000454983011
61    0.000327550238
62    4.56125149e-16
63    -0.00115670168
64    0.000509271144
65    -0.00036364352
66    2.12146028e-16
67    -0.00126239677
68    -0.000325220765
69    0.000200271896
70    -1.62444473e-15
71    0.000112886489
72    0.000447073589
73    -0.000183678484
74    7.58232649e-14
75    0.000859430908
76    9.37925035e-05
77    -2.44912173e-05
78    6.83625894e-14
79    0.000196337414
80    -1.08348238e-16
81    0.000177233327
82    -1.27321386e-15
83    -0.000139475524
84    1.4551241e-06
85    1.10012559e-05
86    5.45680103e-05
87    0.00018371606
88    0.000470513463
89    0.000305573686
90    0.000678565239
91    -0.000151300236
92    9.09750504e-05
93    5.22791997e-16
94    -0.000421956406
95    -0.000385385042
96    0.00022595935
97    1.00989397e-15
98    0.000192781587
99    0.000174500642
100    -0.000109909831
101    4.7291373e-15
102    -9.00398157e-05
103    -0.000164330346
104    0.000134368232
105    -4.72398784e-15
106    0.000543737401
107    7.32132529e-05
108    -0.000129134024
109    -2.3683993e-14
110    0.000168898232
111    -6.12811325e-16
112    8.32896034e-05
113    -6.84176016e-17
114    -9.33659643e-05
115    -0.000563105075
116    -0.00435926667
117    -0.0217466255
118    -0.0746600373
119    -0.176388913
120    -0.0642219008
121    -0.236243909
122    0.000360381081
123    -0.000281623642
124    -4.59833476e-15
125    -0.000587094358
126    -0.00039171368
127    -0.000192068012
128    -7.83959476e-15
129    -0.00107765758
130    8.80791082e-05
131    0.000109802556
132    -1.0073993e-14
133    -0.00209795773
134    0.0006272527
135    -9.52117547e-05
136    2.87490139e-14
137    -0.000429786315
138    0.00023388981
139    6.03122108e-05
140    -3.25968466e-14
141    -0.000131713091
142    -4.33942289e-16
143    9.12675362e-05
144    -4.81877995e-16
145    -0.000172224848
146    1.58643965e-06
147    1.20226613e-05
148    5.93767938e-05
149    0.000200738225
150    0.000507466062
151    0.000299296646
152    0.000733579773
153    0.00010467892
154    7.89899666e-05
155    -3.15008922e-15
156    -0.00031069533
157    0.000278081245
158    0.000168039564
159    -5.34747702e-15
160    0.000151359492
161    -0.000103133411
162    -9.62848985e-05
163    -6.69495552e-15
164    0.000246952415
165    -6.66490153e-05
166    3.68522371e-05
167    -1.16300424e-14
168    0.000329891302
169    -0.000153236029
170    -7.11634417e-05
171    1.30313109e-14
172    -0.000114597962
173    6.9949476e-16
174    5.66964987e-05
175    8.72751883e-16
176    -7.41283335e-05
177    4.52581834e-06
178    3.42952102e-05
179    0.000169357921
180    0.000570398525
181    0.00142322379
182    0.000817481586
183    0.00187778416
184    1.82285615e-05
185    5.81286399e-05
186    -5.62985873e-16
187    -0.000634357123
188    0.000137885522
189    0.000355732498
190    -6.71376742e-15
191    0.000165845914
192    -0.000152505532
193    -9.37354864e-06
194    6.39050852e-15
195    0.00122856585
196    6.93976113e-05
197    -0.000382925385
198    -3.91369002e-14
199    0.000195974163
200    -1.74021382e-05
201    -0.000172057266
202    -3.93013204e-14
203    -4.35942001e-05
204    1.45659471e-16
205    0.000131190838
206    -9.40903053e-16
207    -0.000249832239
208    2.21643294e-06
209    1.67985004e-05
210    8.29332251e-05
211    0.00027940379
212    0.000696303267
213    0.000396883443
214    0.000921786121
215    -6.18693698e-06
216    -5.80215838e-05
217    2.3953137e-15
218    -0.000318722405
219    0.000135835443
220    -0.000578214534
221    -3.58979516e-15
222    0.000184914622
223    4.02482892e-05
224    0.000200080886
225    1.49671186e-14
226    0.00057240034
227    -0.000156146232
228    0.000293536534
229    -4.20227921e-14
230    -0.000238491114
231    9.87111115e-05
232    -0.000284304325
233    -5.58658367e-15
234    -2.45278197e-05
235    -1.07892619e-16
236    5.47692966e-05
237    -3.93406554e-16
238    0.000267969308
239    0.000515362275
240    0.00398978568
241    0.019902376
242    0.0683342396
243    0.161425501
244    0.05908612
245    0.216072087
246    -0.000106692418
247    5.64855956e-05
248    -2.27870634e-15
249    0.000665909429
250    -3.45411886e-05
251    -0.000341710572
252    -5.95687185e-15
253    0.000786449263
254    -0.00024579608
255    0.000349250343
256    -2.17094309e-15
257    0.00308690559
258    -0.000985526713
259    8.06695064e-05
260    -4.25350207e-14
261    -0.000158114401
262    -7.99605175e-05
263    -6.65907911e-05
264    5.90615483e-14
265    1.41261545e-05
266    -1.03724267e-15
267    -2.87751552e-05
268    -1.52862133e-16
269    0.000197633427
270    0.000162854548
271    0.000128602878
272    0.00017578875
273    0.000127616591
274    -0.000105187737
275    2.79943043e-05
276    -1.36383539e-15
[5D]