[Molden Format]
[Atoms] (Angs)
  C      1    6     -0.00714236     -1.70213747     -0.00000000
  H      2    1     -2.06882847     -1.44022412      0.00000000
  H      3    1     -0.12337987     -2.77567521      0.00000000
  H      4    1      0.04651892      1.98813947     -0.00000000
  C      5    6     -1.21953563      0.40211669      0.00000000
  O      6    8     -2.25921553      1.03043814      0.00000000
  C      7    6      1.28797806      0.34644937     -0.00000000
  O      8    8      2.31273661      1.00537216     -0.00000000
  N      9    7      0.03446295      0.97739857     -0.00000000
  N     10    7     -1.17287765     -0.98229824      0.00000000
  C     11    6      1.20107039     -1.10433419     -0.00000000
  H     12    1      2.11220096     -1.67699125     -0.00000000
[GTO]
1    0
S    1    1.000000
   4.56324000E+03    1.96665000E-03 
S    1    1.000000
   6.82024000E+02    1.52306000E-02 
S    1    1.000000
   1.54973000E+02    7.61269000E-02 
S    1    1.000000
   4.44553000E+01    2.60801000E-01 
S    1    1.000000
   1.30290000E+01    6.16462000E-01 
S    1    1.000000
   1.82773000E+00    2.21006000E-01 
SP   3    1.000000
   2.09642000E+01    1.14660000E-01   4.02487000E-02 
   4.80331000E+00    9.19999000E-01   2.37594000E-01 
   1.45933000E+00   -3.03068000E-03   8.15854000E-01 
SP   1    1.000000
   4.83456000E-01    1.00000000E+00   1.00000000E+00 
SP   1    1.000000
   1.45585000E-01    1.00000000E+00   1.00000000E+00 
SP   1    1.000000
   4.38000000E-02    1.00000000E+00   1.00000000E+00 
SP   1    1.000000
   1.31927711E-02    1.00000000E+00   1.00000000E+00 
D    1    1.000000
   6.26000000E-01    1.00000000E+00 

2    0
S    3    1.000000
   3.38650000E+01    2.54938000E-02 
   5.09479000E+00    1.90373000E-01 
   1.15879000E+00    8.52161000E-01 
S    1    1.000000
   3.25840000E-01    1.00000000E+00 
S    1    1.000000
   1.02741000E-01    1.00000000E+00 
S    1    1.000000
   3.60000000E-02    1.00000000E+00 
P    1    1.000000
   7.50000000E-01    1.00000000E+00 

3    0
S    3    1.000000
   3.38650000E+01    2.54938000E-02 
   5.09479000E+00    1.90373000E-01 
   1.15879000E+00    8.52161000E-01 
S    1    1.000000
   3.25840000E-01    1.00000000E+00 
S    1    1.000000
   1.02741000E-01    1.00000000E+00 
S    1    1.000000
   3.60000000E-02    1.00000000E+00 
P    1    1.000000
   7.50000000E-01    1.00000000E+00 

4    0
S    3    1.000000
   3.38650000E+01    2.54938000E-02 
   5.09479000E+00    1.90373000E-01 
   1.15879000E+00    8.52161000E-01 
S    1    1.000000
   3.25840000E-01    1.00000000E+00 
S    1    1.000000
   1.02741000E-01    1.00000000E+00 
S    1    1.000000
   3.60000000E-02    1.00000000E+00 
P    1    1.000000
   7.50000000E-01    1.00000000E+00 

5    0
S    1    1.000000
   4.56324000E+03    1.96665000E-03 
S    1    1.000000
   6.82024000E+02    1.52306000E-02 
S    1    1.000000
   1.54973000E+02    7.61269000E-02 
S    1    1.000000
   4.44553000E+01    2.60801000E-01 
S    1    1.000000
   1.30290000E+01    6.16462000E-01 
S    1    1.000000
   1.82773000E+00    2.21006000E-01 
SP   3    1.000000
   2.09642000E+01    1.14660000E-01   4.02487000E-02 
   4.80331000E+00    9.19999000E-01   2.37594000E-01 
   1.45933000E+00   -3.03068000E-03   8.15854000E-01 
SP   1    1.000000
   4.83456000E-01    1.00000000E+00   1.00000000E+00 
SP   1    1.000000
   1.45585000E-01    1.00000000E+00   1.00000000E+00 
SP   1    1.000000
   4.38000000E-02    1.00000000E+00   1.00000000E+00 
SP   1    1.000000
   1.31927711E-02    1.00000000E+00   1.00000000E+00 
D    1    1.000000
   6.26000000E-01    1.00000000E+00 

6    0
S    1    1.000000
   8.58850000E+03    1.89515000E-03 
S    1    1.000000
   1.29723000E+03    1.43859000E-02 
S    1    1.000000
   2.99296000E+02    7.07320000E-02 
S    1    1.000000
   8.73771000E+01    2.40001000E-01 
S    1    1.000000
   2.56789000E+01    5.94797000E-01 
S    1    1.000000
   3.74004000E+00    2.80802000E-01 
SP   3    1.000000
   4.21175000E+01    1.13889000E-01   3.65114000E-02 
   9.62837000E+00    9.20811000E-01   2.37153000E-01 
   2.85332000E+00   -3.27447000E-03   8.19702000E-01 
SP   1    1.000000
   9.05661000E-01    1.00000000E+00   1.00000000E+00 
SP   1    1.000000
   2.55611000E-01    1.00000000E+00   1.00000000E+00 
SP   1    1.000000
   8.45000000E-02    1.00000000E+00   1.00000000E+00 
SP   1    1.000000
   2.54518072E-02    1.00000000E+00   1.00000000E+00 
D    1    1.000000
   1.29200000E+00    1.00000000E+00 

7    0
S    1    1.000000
   4.56324000E+03    1.96665000E-03 
S    1    1.000000
   6.82024000E+02    1.52306000E-02 
S    1    1.000000
   1.54973000E+02    7.61269000E-02 
S    1    1.000000
   4.44553000E+01    2.60801000E-01 
S    1    1.000000
   1.30290000E+01    6.16462000E-01 
S    1    1.000000
   1.82773000E+00    2.21006000E-01 
SP   3    1.000000
   2.09642000E+01    1.14660000E-01   4.02487000E-02 
   4.80331000E+00    9.19999000E-01   2.37594000E-01 
   1.45933000E+00   -3.03068000E-03   8.15854000E-01 
SP   1    1.000000
   4.83456000E-01    1.00000000E+00   1.00000000E+00 
SP   1    1.000000
   1.45585000E-01    1.00000000E+00   1.00000000E+00 
SP   1    1.000000
   4.38000000E-02    1.00000000E+00   1.00000000E+00 
SP   1    1.000000
   1.31927711E-02    1.00000000E+00   1.00000000E+00 
D    1    1.000000
   6.26000000E-01    1.00000000E+00 

8    0
S    1    1.000000
   8.58850000E+03    1.89515000E-03 
S    1    1.000000
   1.29723000E+03    1.43859000E-02 
S    1    1.000000
   2.99296000E+02    7.07320000E-02 
S    1    1.000000
   8.73771000E+01    2.40001000E-01 
S    1    1.000000
   2.56789000E+01    5.94797000E-01 
S    1    1.000000
   3.74004000E+00    2.80802000E-01 
SP   3    1.000000
   4.21175000E+01    1.13889000E-01   3.65114000E-02 
   9.62837000E+00    9.20811000E-01   2.37153000E-01 
   2.85332000E+00   -3.27447000E-03   8.19702000E-01 
SP   1    1.000000
   9.05661000E-01    1.00000000E+00   1.00000000E+00 
SP   1    1.000000
   2.55611000E-01    1.00000000E+00   1.00000000E+00 
SP   1    1.000000
   8.45000000E-02    1.00000000E+00   1.00000000E+00 
SP   1    1.000000
   2.54518072E-02    1.00000000E+00   1.00000000E+00 
D    1    1.000000
   1.29200000E+00    1.00000000E+00 

9    0
S    1    1.000000
   6.29348000E+03    1.96979000E-03 
S    1    1.000000
   9.49044000E+02    1.49613000E-02 
S    1    1.000000
   2.18776000E+02    7.35006000E-02 
S    1    1.000000
   6.36916000E+01    2.48937000E-01 
S    1    1.000000
   1.88282000E+01    6.02460000E-01 
S    1    1.000000
   2.72023000E+00    2.56202000E-01 
SP   3    1.000000
   3.06331000E+01    1.11906000E-01   3.83119000E-02 
   7.02614000E+00    9.21666000E-01   2.37403000E-01 
   2.11205000E+00   -2.56919000E-03   8.17592000E-01 
SP   1    1.000000
   6.84009000E-01    1.00000000E+00   1.00000000E+00 
SP   1    1.000000
   2.00878000E-01    1.00000000E+00   1.00000000E+00 
SP   1    1.000000
   6.39000000E-02    1.00000000E+00   1.00000000E+00 
SP   1    1.000000
   1.92469880E-02    1.00000000E+00   1.00000000E+00 
D    1    1.000000
   9.13000000E-01    1.00000000E+00 

10    0
S    1    1.000000
   6.29348000E+03    1.96979000E-03 
S    1    1.000000
   9.49044000E+02    1.49613000E-02 
S    1    1.000000
   2.18776000E+02    7.35006000E-02 
S    1    1.000000
   6.36916000E+01    2.48937000E-01 
S    1    1.000000
   1.88282000E+01    6.02460000E-01 
S    1    1.000000
   2.72023000E+00    2.56202000E-01 
SP   3    1.000000
   3.06331000E+01    1.11906000E-01   3.83119000E-02 
   7.02614000E+00    9.21666000E-01   2.37403000E-01 
   2.11205000E+00   -2.56919000E-03   8.17592000E-01 
SP   1    1.000000
   6.84009000E-01    1.00000000E+00   1.00000000E+00 
SP   1    1.000000
   2.00878000E-01    1.00000000E+00   1.00000000E+00 
SP   1    1.000000
   6.39000000E-02    1.00000000E+00   1.00000000E+00 
SP   1    1.000000
   1.92469880E-02    1.00000000E+00   1.00000000E+00 
D    1    1.000000
   9.13000000E-01    1.00000000E+00 

11    0
S    1    1.000000
   4.56324000E+03    1.96665000E-03 
S    1    1.000000
   6.82024000E+02    1.52306000E-02 
S    1    1.000000
   1.54973000E+02    7.61269000E-02 
S    1    1.000000
   4.44553000E+01    2.60801000E-01 
S    1    1.000000
   1.30290000E+01    6.16462000E-01 
S    1    1.000000
   1.82773000E+00    2.21006000E-01 
SP   3    1.000000
   2.09642000E+01    1.14660000E-01   4.02487000E-02 
   4.80331000E+00    9.19999000E-01   2.37594000E-01 
   1.45933000E+00   -3.03068000E-03   8.15854000E-01 
SP   1    1.000000
   4.83456000E-01    1.00000000E+00   1.00000000E+00 
SP   1    1.000000
   1.45585000E-01    1.00000000E+00   1.00000000E+00 
SP   1    1.000000
   4.38000000E-02    1.00000000E+00   1.00000000E+00 
SP   1    1.000000
   1.31927711E-02    1.00000000E+00   1.00000000E+00 
D    1    1.000000
   6.26000000E-01    1.00000000E+00 

12    0
S    3    1.000000
   3.38650000E+01    2.54938000E-02 
   5.09479000E+00    1.90373000E-01 
   1.15879000E+00    8.52161000E-01 
S    1    1.000000
   3.25840000E-01    1.00000000E+00 
S    1    1.000000
   1.02741000E-01    1.00000000E+00 
S    1    1.000000
   3.60000000E-02    1.00000000E+00 
P    1    1.000000
   7.50000000E-01    1.00000000E+00 

[MO]
Sym=X
Ene=3.2e-05
Spin=Alpha
Occup=1
1    0.000424195311
2    0.00328392938
3    0.0163817528
4    0.0562426891
5    0.132869284
6    0.048398602
7    0.177867696
8    -0.000345508851
9    0.000165168797
10    4.12420284e-16
11    0.00104887198
12    0.000875665679
13    0.000237829803
14    -1.64602687e-15
15    -0.000116035235
16    -0.000384814239
17    -8.63712187e-06
18    -9.55412223e-16
19    -0.00299685502
20    -0.000455161717
21    -0.00130602692
22    5.4832322e-14
23    -0.000247983405
24    0.000122319523
25    -0.000330075561
26    -1.12304022e-13
27    0.000397373269
28    -2.26902377e-17
29    -0.000109102214
30    -2.02716502e-16
31    0.000186388395
32    1.68619699e-05
33    3.39456206e-05
34    0.000204240831
35    0.000352762452
36    2.29928119e-05
37    -3.61204537e-06
38    4.388104e-16
39    0.000163328876
40    0.000275897921
41    -0.000209937351
42    -0.000575499778
43    6.75119829e-05
44    0.00017480147
45    1.53249948e-16
46    2.92291135e-05
47    2.86163857e-05
48    0.000206489067
49    0.000141649185
50    -1.36427186e-07
51    -1.84065799e-05
52    -4.04814057e-16
53    -0.000178980303
54    -0.00138552447
55    -0.00691216936
56    -0.0237295318
57    -0.0560751575
58    -0.0204520585
59    -0.0750514667
60    -0.000119052026
61    8.27341171e-05
62    1.2065174e-15
63    -0.000126229539
64    0.000164027601
65    -0.000119538693
66    4.32863843e-16
67    -0.00058385687
68    -0.000924793486
69    0.000505390578
70    1.91871951e-15
71    0.000731063821
72    -0.000226984908
73    -7.00335114e-05
74    8.41019418e-14
75    8.71428318e-05
76    -8.90081756e-05
77    -1.68725073e-05
78    7.50861705e-14
79    4.35048224e-05
80    1.63298075e-16
81    4.83674084e-05
82    -6.91749277e-16
83    -1.58455949e-05
84    3.21561468e-08
85    2.52672276e-07
86    1.21048049e-06
87    4.3032618e-06
88    8.07692884e-06
89    1.91477806e-06
90    3.32157617e-05
91    -3.82676626e-05
92    2.24703103e-05
93    7.67779891e-16
94    -3.24862275e-05
95    -5.51071891e-05
96    3.72598749e-05
97    1.724056e-15
98    -0.000250207038
99    -0.00010400054
100    6.74996429e-05
101    3.15869162e-15
102    -0.00125907557
103    -0.000340476531
104    0.00017449431
105    -3.68478477e-15
106    -0.000587462282
107    -1.61532451e-05
108    0.000199739162
109    -4.05519585e-14
110    4.04607648e-05
111    -6.27771212e-17
112    2.06913947e-05
113    3.76203622e-16
114    -1.86307505e-05
115    0.0006610397
116    0.0051174671
117    0.0255285513
118    0.0876449294
119    0.207049664
120    0.0752251927
121    0.277325959
122    -0.000445649683
123    0.000248839891
124    -1.94736773e-15
125    0.00138019208
126    0.000451684402
127    -0.000629375618
128    -4.79119973e-16
129    0.000564954294
130    4.80224604e-05
131    0.000810103191
132    -9.14228092e-15
133    -0.00328627599
134    0.000802810956
135    0.00240038781
136    6.1621627e-14
137    -0.000446939609
138    -0.00013038635
139    1.99987877e-05
140    -4.64900603e-14
141    0.000255383562
142    -1.87858896e-16
143    -0.000204782818
144    -3.43325128e-16
145    -0.000298490132
146    -6.85575405e-07
147    -5.1310255e-06
148    -2.58749337e-05
149    -8.56758263e-05
150    -0.000232882234
151    -0.000207222847
152    -0.000307769502
153    -0.000116325325
154    -6.43467053e-05
155    -3.6565776e-16
156    0.000422834227
157    -0.000363743974
158    -0.000259162215
159    -4.35924548e-15
160    -0.000229166153
161    0.000213647887
162    6.15768521e-05
163    1.07780578e-15
164    -0.000734279013
165    1.90370295e-06
166    -0.000102923376
167    -1.03377548e-14
168    -0.00256043308
169    0.000604014701
170    7.32128282e-05
171    -2.7483151e-15
172    0.000174613433
173    3.46936491e-16
174    -6.99812651e-05
175    2.03906332e-16
176    4.7422266e-05
177    -1.94516985e-07
178    -1.34702996e-06
179    -7.60672065e-06
180    -2.2143952e-05
181    -8.83828576e-05
182    -0.000174039517
183    -1.74112057e-05
184    2.22371168e-05
185    -3.14795756e-06
186    1.34236657e-15
187    0.000312945096
188    0.00057399753
189    -0.000187060282
190    -3.78312054e-15
191    0.000254290331
192    -0.000280834646
193    -0.000234800408
194    1.38693624e-14
195    -0.00020180436
196    -0.000793729725
197    -0.000469191036
198    -5.0628034e-14
199    0.00104948351
200    0.000698012491
201    -0.00013264536
202    -4.91794074e-14
203    -0.000218664325
204    3.83034384e-17
205    -6.21814158e-05
206    -2.48190263e-16
207    0.000109184439
208    -2.28859548e-07
209    -1.64221306e-06
210    -8.794007e-06
211    -2.71100609e-05
212    -9.17538405e-05
213    -0.00014371754
214    -4.54985582e-05
215    2.11002632e-06
216    -2.3767888e-05
217    2.27911703e-15
218    0.000250175284
219    0.000368374703
220    -0.000307558903
221    -4.92509572e-15
222    0.00017588405
223    7.49924429e-05
224    0.000210596967
225    1.68101439e-14
226    0.000310974948
227    0.000371336691
228    0.000408646151
229    -5.86258076e-14
230    0.000590388396
231    -8.19392419e-05
232    0.000337523937
233    1.33977252e-14
234    -0.000145240074
235    1.79169102e-16
236    -4.39285926e-05
237    -7.29439847e-17
238    0.000146878346
239    0.000762325853
240    0.00590164007
241    0.0294396683
242    0.101078047
243    0.238786884
244    0.0873410591
245    0.319535968
246    -0.00018482784
247    0.000184877096
248    1.31033319e-16
249    0.00148037144
250    -6.45935623e-05
251    0.000146606699
252    -4.15866521e-15
253    0.000830641938
254    -0.000269671172
255    0.000142219211
256    7.0143121e-15
257    0.00807819848
258    -0.00100979854
259    0.00139802151
260    -7.02273205e-14
261    0.000481253061
262    4.66912841e-05
263    0.000335820722
264    1.0656041e-13
265    0.000125994627
266    1.21060117e-16
267    -5.937229e-05
268    -4.05020829e-16
269    -5.45264534e-05
270    0.000283661697
271    0.000363553293
272    -5.14103256e-05
273    0.000391820819
274    -0.00023515184
275    0.000141377653
276    -7.82408828e-16
[5D]