[Molden Format]
[Atoms] (Angs)
  C      1    6     -0.00714236     -1.70213747     -0.00000000
  H      2    1     -2.06882847     -1.44022412      0.00000000
  H      3    1     -0.12337987     -2.77567521      0.00000000
  H      4    1      0.04651892      1.98813947     -0.00000000
  C      5    6     -1.21953563      0.40211669      0.00000000
  O      6    8     -2.25921553      1.03043814      0.00000000
  C      7    6      1.28797806      0.34644937     -0.00000000
  O      8    8      2.31273661      1.00537216     -0.00000000
  N      9    7      0.03446295      0.97739857     -0.00000000
  N     10    7     -1.17287765     -0.98229824      0.00000000
  C     11    6      1.20107039     -1.10433419     -0.00000000
  H     12    1      2.11220096     -1.67699125     -0.00000000
[GTO]
1    0
S    1    1.000000
   4.56324000E+03    1.96665000E-03 
S    1    1.000000
   6.82024000E+02    1.52306000E-02 
S    1    1.000000
   1.54973000E+02    7.61269000E-02 
S    1    1.000000
   4.44553000E+01    2.60801000E-01 
S    1    1.000000
   1.30290000E+01    6.16462000E-01 
S    1    1.000000
   1.82773000E+00    2.21006000E-01 
SP   3    1.000000
   2.09642000E+01    1.14660000E-01   4.02487000E-02 
   4.80331000E+00    9.19999000E-01   2.37594000E-01 
   1.45933000E+00   -3.03068000E-03   8.15854000E-01 
SP   1    1.000000
   4.83456000E-01    1.00000000E+00   1.00000000E+00 
SP   1    1.000000
   1.45585000E-01    1.00000000E+00   1.00000000E+00 
SP   1    1.000000
   4.38000000E-02    1.00000000E+00   1.00000000E+00 
SP   1    1.000000
   1.31927711E-02    1.00000000E+00   1.00000000E+00 
D    1    1.000000
   6.26000000E-01    1.00000000E+00 

2    0
S    3    1.000000
   3.38650000E+01    2.54938000E-02 
   5.09479000E+00    1.90373000E-01 
   1.15879000E+00    8.52161000E-01 
S    1    1.000000
   3.25840000E-01    1.00000000E+00 
S    1    1.000000
   1.02741000E-01    1.00000000E+00 
S    1    1.000000
   3.60000000E-02    1.00000000E+00 
P    1    1.000000
   7.50000000E-01    1.00000000E+00 

3    0
S    3    1.000000
   3.38650000E+01    2.54938000E-02 
   5.09479000E+00    1.90373000E-01 
   1.15879000E+00    8.52161000E-01 
S    1    1.000000
   3.25840000E-01    1.00000000E+00 
S    1    1.000000
   1.02741000E-01    1.00000000E+00 
S    1    1.000000
   3.60000000E-02    1.00000000E+00 
P    1    1.000000
   7.50000000E-01    1.00000000E+00 

4    0
S    3    1.000000
   3.38650000E+01    2.54938000E-02 
   5.09479000E+00    1.90373000E-01 
   1.15879000E+00    8.52161000E-01 
S    1    1.000000
   3.25840000E-01    1.00000000E+00 
S    1    1.000000
   1.02741000E-01    1.00000000E+00 
S    1    1.000000
   3.60000000E-02    1.00000000E+00 
P    1    1.000000
   7.50000000E-01    1.00000000E+00 

5    0
S    1    1.000000
   4.56324000E+03    1.96665000E-03 
S    1    1.000000
   6.82024000E+02    1.52306000E-02 
S    1    1.000000
   1.54973000E+02    7.61269000E-02 
S    1    1.000000
   4.44553000E+01    2.60801000E-01 
S    1    1.000000
   1.30290000E+01    6.16462000E-01 
S    1    1.000000
   1.82773000E+00    2.21006000E-01 
SP   3    1.000000
   2.09642000E+01    1.14660000E-01   4.02487000E-02 
   4.80331000E+00    9.19999000E-01   2.37594000E-01 
   1.45933000E+00   -3.03068000E-03   8.15854000E-01 
SP   1    1.000000
   4.83456000E-01    1.00000000E+00   1.00000000E+00 
SP   1    1.000000
   1.45585000E-01    1.00000000E+00   1.00000000E+00 
SP   1    1.000000
   4.38000000E-02    1.00000000E+00   1.00000000E+00 
SP   1    1.000000
   1.31927711E-02    1.00000000E+00   1.00000000E+00 
D    1    1.000000
   6.26000000E-01    1.00000000E+00 

6    0
S    1    1.000000
   8.58850000E+03    1.89515000E-03 
S    1    1.000000
   1.29723000E+03    1.43859000E-02 
S    1    1.000000
   2.99296000E+02    7.07320000E-02 
S    1    1.000000
   8.73771000E+01    2.40001000E-01 
S    1    1.000000
   2.56789000E+01    5.94797000E-01 
S    1    1.000000
   3.74004000E+00    2.80802000E-01 
SP   3    1.000000
   4.21175000E+01    1.13889000E-01   3.65114000E-02 
   9.62837000E+00    9.20811000E-01   2.37153000E-01 
   2.85332000E+00   -3.27447000E-03   8.19702000E-01 
SP   1    1.000000
   9.05661000E-01    1.00000000E+00   1.00000000E+00 
SP   1    1.000000
   2.55611000E-01    1.00000000E+00   1.00000000E+00 
SP   1    1.000000
   8.45000000E-02    1.00000000E+00   1.00000000E+00 
SP   1    1.000000
   2.54518072E-02    1.00000000E+00   1.00000000E+00 
D    1    1.000000
   1.29200000E+00    1.00000000E+00 

7    0
S    1    1.000000
   4.56324000E+03    1.96665000E-03 
S    1    1.000000
   6.82024000E+02    1.52306000E-02 
S    1    1.000000
   1.54973000E+02    7.61269000E-02 
S    1    1.000000
   4.44553000E+01    2.60801000E-01 
S    1    1.000000
   1.30290000E+01    6.16462000E-01 
S    1    1.000000
   1.82773000E+00    2.21006000E-01 
SP   3    1.000000
   2.09642000E+01    1.14660000E-01   4.02487000E-02 
   4.80331000E+00    9.19999000E-01   2.37594000E-01 
   1.45933000E+00   -3.03068000E-03   8.15854000E-01 
SP   1    1.000000
   4.83456000E-01    1.00000000E+00   1.00000000E+00 
SP   1    1.000000
   1.45585000E-01    1.00000000E+00   1.00000000E+00 
SP   1    1.000000
   4.38000000E-02    1.00000000E+00   1.00000000E+00 
SP   1    1.000000
   1.31927711E-02    1.00000000E+00   1.00000000E+00 
D    1    1.000000
   6.26000000E-01    1.00000000E+00 

8    0
S    1    1.000000
   8.58850000E+03    1.89515000E-03 
S    1    1.000000
   1.29723000E+03    1.43859000E-02 
S    1    1.000000
   2.99296000E+02    7.07320000E-02 
S    1    1.000000
   8.73771000E+01    2.40001000E-01 
S    1    1.000000
   2.56789000E+01    5.94797000E-01 
S    1    1.000000
   3.74004000E+00    2.80802000E-01 
SP   3    1.000000
   4.21175000E+01    1.13889000E-01   3.65114000E-02 
   9.62837000E+00    9.20811000E-01   2.37153000E-01 
   2.85332000E+00   -3.27447000E-03   8.19702000E-01 
SP   1    1.000000
   9.05661000E-01    1.00000000E+00   1.00000000E+00 
SP   1    1.000000
   2.55611000E-01    1.00000000E+00   1.00000000E+00 
SP   1    1.000000
   8.45000000E-02    1.00000000E+00   1.00000000E+00 
SP   1    1.000000
   2.54518072E-02    1.00000000E+00   1.00000000E+00 
D    1    1.000000
   1.29200000E+00    1.00000000E+00 

9    0
S    1    1.000000
   6.29348000E+03    1.96979000E-03 
S    1    1.000000
   9.49044000E+02    1.49613000E-02 
S    1    1.000000
   2.18776000E+02    7.35006000E-02 
S    1    1.000000
   6.36916000E+01    2.48937000E-01 
S    1    1.000000
   1.88282000E+01    6.02460000E-01 
S    1    1.000000
   2.72023000E+00    2.56202000E-01 
SP   3    1.000000
   3.06331000E+01    1.11906000E-01   3.83119000E-02 
   7.02614000E+00    9.21666000E-01   2.37403000E-01 
   2.11205000E+00   -2.56919000E-03   8.17592000E-01 
SP   1    1.000000
   6.84009000E-01    1.00000000E+00   1.00000000E+00 
SP   1    1.000000
   2.00878000E-01    1.00000000E+00   1.00000000E+00 
SP   1    1.000000
   6.39000000E-02    1.00000000E+00   1.00000000E+00 
SP   1    1.000000
   1.92469880E-02    1.00000000E+00   1.00000000E+00 
D    1    1.000000
   9.13000000E-01    1.00000000E+00 

10    0
S    1    1.000000
   6.29348000E+03    1.96979000E-03 
S    1    1.000000
   9.49044000E+02    1.49613000E-02 
S    1    1.000000
   2.18776000E+02    7.35006000E-02 
S    1    1.000000
   6.36916000E+01    2.48937000E-01 
S    1    1.000000
   1.88282000E+01    6.02460000E-01 
S    1    1.000000
   2.72023000E+00    2.56202000E-01 
SP   3    1.000000
   3.06331000E+01    1.11906000E-01   3.83119000E-02 
   7.02614000E+00    9.21666000E-01   2.37403000E-01 
   2.11205000E+00   -2.56919000E-03   8.17592000E-01 
SP   1    1.000000
   6.84009000E-01    1.00000000E+00   1.00000000E+00 
SP   1    1.000000
   2.00878000E-01    1.00000000E+00   1.00000000E+00 
SP   1    1.000000
   6.39000000E-02    1.00000000E+00   1.00000000E+00 
SP   1    1.000000
   1.92469880E-02    1.00000000E+00   1.00000000E+00 
D    1    1.000000
   9.13000000E-01    1.00000000E+00 

11    0
S    1    1.000000
   4.56324000E+03    1.96665000E-03 
S    1    1.000000
   6.82024000E+02    1.52306000E-02 
S    1    1.000000
   1.54973000E+02    7.61269000E-02 
S    1    1.000000
   4.44553000E+01    2.60801000E-01 
S    1    1.000000
   1.30290000E+01    6.16462000E-01 
S    1    1.000000
   1.82773000E+00    2.21006000E-01 
SP   3    1.000000
   2.09642000E+01    1.14660000E-01   4.02487000E-02 
   4.80331000E+00    9.19999000E-01   2.37594000E-01 
   1.45933000E+00   -3.03068000E-03   8.15854000E-01 
SP   1    1.000000
   4.83456000E-01    1.00000000E+00   1.00000000E+00 
SP   1    1.000000
   1.45585000E-01    1.00000000E+00   1.00000000E+00 
SP   1    1.000000
   4.38000000E-02    1.00000000E+00   1.00000000E+00 
SP   1    1.000000
   1.31927711E-02    1.00000000E+00   1.00000000E+00 
D    1    1.000000
   6.26000000E-01    1.00000000E+00 

12    0
S    3    1.000000
   3.38650000E+01    2.54938000E-02 
   5.09479000E+00    1.90373000E-01 
   1.15879000E+00    8.52161000E-01 
S    1    1.000000
   3.25840000E-01    1.00000000E+00 
S    1    1.000000
   1.02741000E-01    1.00000000E+00 
S    1    1.000000
   3.60000000E-02    1.00000000E+00 
P    1    1.000000
   7.50000000E-01    1.00000000E+00 

[MO]
Sym=X
Ene=5.1e-05
Spin=Alpha
Occup=1
1    -0.000919029302
2    -0.00711482972
3    -0.0354914981
4    -0.121855066
5    -0.287847822
6    -0.10497991
7    -0.385528432
8    0.000997737859
9    -0.000221313469
10    1.93613843e-15
11    -0.00113569332
12    -0.000622516933
13    0.000195240259
14    -1.66123704e-16
15    -0.00177204961
16    0.000129596348
17    -0.00106322891
18    8.96216987e-15
19    -0.00131648285
20    0.000591901173
21    -0.000886291397
22    -2.90238782e-14
23    5.6554177e-05
24    -0.000106922584
25    -6.38986559e-05
26    4.14132122e-14
27    -0.000169707688
28    -1.33974652e-16
29    0.000187468467
30    2.43882125e-15
31    3.1396383e-05
32    -1.69983111e-05
33    -5.4711492e-06
34    -8.56287996e-06
35    0.000212830755
36    -2.52275302e-05
37    -1.12557009e-05
38    -1.65813814e-15
39    -0.000298308573
40    -0.000362598575
41    -0.000406923105
42    -0.000335148802
43    -8.28312944e-06
44    -0.00022133722
45    6.90163238e-16
46    -4.46409897e-06
47    6.68282083e-05
48    -0.000222316067
49    -5.09786617e-05
50    -7.3761849e-07
51    -7.13793846e-06
52    -2.7136393e-15
53    0.000165908187
54    0.00128435643
55    0.00640726938
56    0.021996946
57    0.0519742583
58    0.0189328255
59    0.0695855418
60    0.000100995907
61    -8.24362553e-05
62    -8.38990963e-15
63    0.000179017938
64    -0.000128656822
65    0.000133537639
66    -1.49059977e-14
67    -0.000281687928
68    0.000400613162
69    -0.000258724337
70    -1.49000994e-14
71    -0.00066084732
72    6.9837841e-05
73    -0.000412367181
74    -4.32689857e-14
75    -0.000412470228
76    -0.000156977439
77    4.09063265e-05
78    -3.00158201e-14
79    -2.5662487e-05
80    -1.902973e-15
81    -3.4889542e-05
82    2.27866992e-15
83    5.46031249e-05
84    5.08394664e-10
85    -1.06378634e-09
86    2.98540362e-09
87    -9.20864733e-08
88    1.48171288e-06
89    1.76219959e-07
90    -1.54741384e-05
91    3.40304024e-05
92    -2.05879633e-05
93    -6.55979272e-15
94    3.70966063e-05
95    6.19954822e-05
96    -2.8885445e-05
97    -9.78285695e-15
98    0.00018822102
99    8.17492139e-05
100    -4.77423916e-05
101    -1.81391902e-14
102    0.000698233145
103    0.000142392047
104    -0.000100705338
105    -8.97482381e-15
106    0.000955284629
107    0.000226093072
108    2.25854541e-06
109    1.16643192e-14
110    -3.48412085e-05
111    1.46747323e-15
112    -1.75804755e-05
113    -1.7251386e-15
114    2.32050407e-05
115    -0.000165891526
116    -0.00128427401
117    -0.00640656207
118    -0.0219957638
119    -0.0519610885
120    -0.0189306019
121    -0.0696237958
122    0.000104022753
123    -0.000136459854
124    2.25979193e-15
125    -2.73560169e-05
126    -0.000120619442
127    -0.000192893049
128    6.41988278e-15
129    -0.000714038427
130    0.000529652839
131    0.000534111336
132    7.54994201e-15
133    5.48044832e-06
134    0.000106836601
135    -0.000132139171
136    -2.2144682e-14
137    -6.77395636e-05
138    -0.000169599073
139    3.53038624e-05
140    1.74000473e-14
141    -5.04639814e-05
142    -6.29570588e-16
143    6.23903908e-06
144    3.36566572e-15
145    -0.000127270921
146    6.39036287e-07
147    4.86786151e-06
148    2.38513776e-05
149    8.1314406e-05
150    0.000199007082
151    9.35667796e-05
152    0.000307004419
153    3.32953769e-05
154    3.01143779e-05
155    2.63286979e-15
156    -4.35447308e-05
157    6.3385862e-05
158    5.01608534e-05
159    6.58807369e-15
160    -0.000173400507
161    4.02331803e-05
162    -8.56804304e-06
163    4.18586832e-15
164    -0.000386559085
165    0.000109815466
166    8.16373121e-05
167    1.86850964e-14
168    -0.000637352627
169    9.31104717e-05
170    0.000100681645
171    7.69239938e-15
172    -2.76991745e-05
173    -3.75088078e-16
174    1.73780471e-05
175    -2.82403568e-16
176    -2.36991231e-05
177    -1.0584304e-06
178    -8.07596861e-06
179    -3.94457921e-05
180    -0.000134376823
181    -0.000320769506
182    -0.00012516586
183    -0.000459642471
184    -3.00955889e-05
185    3.8644181e-08
186    -3.57544195e-15
187    -3.8948266e-05
188    -0.000147355917
189    1.05667308e-05
190    -5.12191847e-15
191    0.000105367935
192    -8.71697549e-06
193    -0.000111356163
194    -1.10967099e-14
195    0.000398829186
196    -4.89955838e-05
197    0.000334766887
198    1.83514049e-14
199    -0.000312175992
200    0.000437764724
201    -5.68077806e-06
202    4.05084303e-14
203    5.11636499e-05
204    3.65837027e-16
205    3.58973012e-06
206    2.6446099e-15
207    2.18732798e-06
208    5.53909662e-07
209    4.11473485e-06
210    2.09866871e-05
211    6.8475772e-05
212    0.0001936381
213    0.000222461461
214    0.000202766793
215    -6.7707783e-05
216    5.05307748e-05
217    -4.04923018e-15
218    -0.000453464409
219    -0.000566598226
220    0.000449266166
221    -1.88290121e-15
222    0.000224230185
223    0.000107672417
224    -5.87266519e-07
225    -1.9053394e-14
226    0.00151897262
227    0.000539758658
228    -0.000214337874
229    2.47836228e-14
230    0.000680203607
231    0.000271547766
232    6.37757429e-05
233    1.00856704e-14
234    0.000255450575
235    -1.73638097e-15
236    8.72714751e-05
237    6.00596924e-16
238    -0.000177643973
239    0.000575636387
240    0.00445656454
241    0.0222298051
242    0.0763297856
243    0.180271799
244    0.065870707
245    0.241480159
246    3.15296535e-05
247    0.000167364425
248    3.69580783e-15
249    0.000774450457
250    0.000155347386
251    -5.92357686e-05
252    6.696714e-15
253    0.00167839139
254    -0.0009291623
255    0.00058351152
256    5.74177409e-15
257    -0.000241694848
258    -0.000332972429
259    0.000753484725
260    4.31536544e-14
261    0.000216044046
262    0.00018826405
263    0.000146474647
264    -1.44642168e-14
265    -0.000102429065
266    2.27060069e-16
267    -8.81804251e-05
268    9.48610998e-16
269    -3.75755614e-05
270    0.000172318894
271    0.000210145251
272    0.00047431891
273    0.000424965164
274    -6.43609573e-05
275    8.2351593e-05
276    2.78014153e-15
[5D]