[Molden Format]
[Atoms] (Angs)
  C      1    6     -0.00714236     -1.70213747     -0.00000000
  H      2    1     -2.06882847     -1.44022412      0.00000000
  H      3    1     -0.12337987     -2.77567521      0.00000000
  H      4    1      0.04651892      1.98813947     -0.00000000
  C      5    6     -1.21953563      0.40211669      0.00000000
  O      6    8     -2.25921553      1.03043814      0.00000000
  C      7    6      1.28797806      0.34644937     -0.00000000
  O      8    8      2.31273661      1.00537216     -0.00000000
  N      9    7      0.03446295      0.97739857     -0.00000000
  N     10    7     -1.17287765     -0.98229824      0.00000000
  C     11    6      1.20107039     -1.10433419     -0.00000000
  H     12    1      2.11220096     -1.67699125     -0.00000000
[GTO]
1    0
S    1    1.000000
   4.56324000E+03    1.96665000E-03 
S    1    1.000000
   6.82024000E+02    1.52306000E-02 
S    1    1.000000
   1.54973000E+02    7.61269000E-02 
S    1    1.000000
   4.44553000E+01    2.60801000E-01 
S    1    1.000000
   1.30290000E+01    6.16462000E-01 
S    1    1.000000
   1.82773000E+00    2.21006000E-01 
SP   3    1.000000
   2.09642000E+01    1.14660000E-01   4.02487000E-02 
   4.80331000E+00    9.19999000E-01   2.37594000E-01 
   1.45933000E+00   -3.03068000E-03   8.15854000E-01 
SP   1    1.000000
   4.83456000E-01    1.00000000E+00   1.00000000E+00 
SP   1    1.000000
   1.45585000E-01    1.00000000E+00   1.00000000E+00 
SP   1    1.000000
   4.38000000E-02    1.00000000E+00   1.00000000E+00 
SP   1    1.000000
   1.31927711E-02    1.00000000E+00   1.00000000E+00 
D    1    1.000000
   6.26000000E-01    1.00000000E+00 

2    0
S    3    1.000000
   3.38650000E+01    2.54938000E-02 
   5.09479000E+00    1.90373000E-01 
   1.15879000E+00    8.52161000E-01 
S    1    1.000000
   3.25840000E-01    1.00000000E+00 
S    1    1.000000
   1.02741000E-01    1.00000000E+00 
S    1    1.000000
   3.60000000E-02    1.00000000E+00 
P    1    1.000000
   7.50000000E-01    1.00000000E+00 

3    0
S    3    1.000000
   3.38650000E+01    2.54938000E-02 
   5.09479000E+00    1.90373000E-01 
   1.15879000E+00    8.52161000E-01 
S    1    1.000000
   3.25840000E-01    1.00000000E+00 
S    1    1.000000
   1.02741000E-01    1.00000000E+00 
S    1    1.000000
   3.60000000E-02    1.00000000E+00 
P    1    1.000000
   7.50000000E-01    1.00000000E+00 

4    0
S    3    1.000000
   3.38650000E+01    2.54938000E-02 
   5.09479000E+00    1.90373000E-01 
   1.15879000E+00    8.52161000E-01 
S    1    1.000000
   3.25840000E-01    1.00000000E+00 
S    1    1.000000
   1.02741000E-01    1.00000000E+00 
S    1    1.000000
   3.60000000E-02    1.00000000E+00 
P    1    1.000000
   7.50000000E-01    1.00000000E+00 

5    0
S    1    1.000000
   4.56324000E+03    1.96665000E-03 
S    1    1.000000
   6.82024000E+02    1.52306000E-02 
S    1    1.000000
   1.54973000E+02    7.61269000E-02 
S    1    1.000000
   4.44553000E+01    2.60801000E-01 
S    1    1.000000
   1.30290000E+01    6.16462000E-01 
S    1    1.000000
   1.82773000E+00    2.21006000E-01 
SP   3    1.000000
   2.09642000E+01    1.14660000E-01   4.02487000E-02 
   4.80331000E+00    9.19999000E-01   2.37594000E-01 
   1.45933000E+00   -3.03068000E-03   8.15854000E-01 
SP   1    1.000000
   4.83456000E-01    1.00000000E+00   1.00000000E+00 
SP   1    1.000000
   1.45585000E-01    1.00000000E+00   1.00000000E+00 
SP   1    1.000000
   4.38000000E-02    1.00000000E+00   1.00000000E+00 
SP   1    1.000000
   1.31927711E-02    1.00000000E+00   1.00000000E+00 
D    1    1.000000
   6.26000000E-01    1.00000000E+00 

6    0
S    1    1.000000
   8.58850000E+03    1.89515000E-03 
S    1    1.000000
   1.29723000E+03    1.43859000E-02 
S    1    1.000000
   2.99296000E+02    7.07320000E-02 
S    1    1.000000
   8.73771000E+01    2.40001000E-01 
S    1    1.000000
   2.56789000E+01    5.94797000E-01 
S    1    1.000000
   3.74004000E+00    2.80802000E-01 
SP   3    1.000000
   4.21175000E+01    1.13889000E-01   3.65114000E-02 
   9.62837000E+00    9.20811000E-01   2.37153000E-01 
   2.85332000E+00   -3.27447000E-03   8.19702000E-01 
SP   1    1.000000
   9.05661000E-01    1.00000000E+00   1.00000000E+00 
SP   1    1.000000
   2.55611000E-01    1.00000000E+00   1.00000000E+00 
SP   1    1.000000
   8.45000000E-02    1.00000000E+00   1.00000000E+00 
SP   1    1.000000
   2.54518072E-02    1.00000000E+00   1.00000000E+00 
D    1    1.000000
   1.29200000E+00    1.00000000E+00 

7    0
S    1    1.000000
   4.56324000E+03    1.96665000E-03 
S    1    1.000000
   6.82024000E+02    1.52306000E-02 
S    1    1.000000
   1.54973000E+02    7.61269000E-02 
S    1    1.000000
   4.44553000E+01    2.60801000E-01 
S    1    1.000000
   1.30290000E+01    6.16462000E-01 
S    1    1.000000
   1.82773000E+00    2.21006000E-01 
SP   3    1.000000
   2.09642000E+01    1.14660000E-01   4.02487000E-02 
   4.80331000E+00    9.19999000E-01   2.37594000E-01 
   1.45933000E+00   -3.03068000E-03   8.15854000E-01 
SP   1    1.000000
   4.83456000E-01    1.00000000E+00   1.00000000E+00 
SP   1    1.000000
   1.45585000E-01    1.00000000E+00   1.00000000E+00 
SP   1    1.000000
   4.38000000E-02    1.00000000E+00   1.00000000E+00 
SP   1    1.000000
   1.31927711E-02    1.00000000E+00   1.00000000E+00 
D    1    1.000000
   6.26000000E-01    1.00000000E+00 

8    0
S    1    1.000000
   8.58850000E+03    1.89515000E-03 
S    1    1.000000
   1.29723000E+03    1.43859000E-02 
S    1    1.000000
   2.99296000E+02    7.07320000E-02 
S    1    1.000000
   8.73771000E+01    2.40001000E-01 
S    1    1.000000
   2.56789000E+01    5.94797000E-01 
S    1    1.000000
   3.74004000E+00    2.80802000E-01 
SP   3    1.000000
   4.21175000E+01    1.13889000E-01   3.65114000E-02 
   9.62837000E+00    9.20811000E-01   2.37153000E-01 
   2.85332000E+00   -3.27447000E-03   8.19702000E-01 
SP   1    1.000000
   9.05661000E-01    1.00000000E+00   1.00000000E+00 
SP   1    1.000000
   2.55611000E-01    1.00000000E+00   1.00000000E+00 
SP   1    1.000000
   8.45000000E-02    1.00000000E+00   1.00000000E+00 
SP   1    1.000000
   2.54518072E-02    1.00000000E+00   1.00000000E+00 
D    1    1.000000
   1.29200000E+00    1.00000000E+00 

9    0
S    1    1.000000
   6.29348000E+03    1.96979000E-03 
S    1    1.000000
   9.49044000E+02    1.49613000E-02 
S    1    1.000000
   2.18776000E+02    7.35006000E-02 
S    1    1.000000
   6.36916000E+01    2.48937000E-01 
S    1    1.000000
   1.88282000E+01    6.02460000E-01 
S    1    1.000000
   2.72023000E+00    2.56202000E-01 
SP   3    1.000000
   3.06331000E+01    1.11906000E-01   3.83119000E-02 
   7.02614000E+00    9.21666000E-01   2.37403000E-01 
   2.11205000E+00   -2.56919000E-03   8.17592000E-01 
SP   1    1.000000
   6.84009000E-01    1.00000000E+00   1.00000000E+00 
SP   1    1.000000
   2.00878000E-01    1.00000000E+00   1.00000000E+00 
SP   1    1.000000
   6.39000000E-02    1.00000000E+00   1.00000000E+00 
SP   1    1.000000
   1.92469880E-02    1.00000000E+00   1.00000000E+00 
D    1    1.000000
   9.13000000E-01    1.00000000E+00 

10    0
S    1    1.000000
   6.29348000E+03    1.96979000E-03 
S    1    1.000000
   9.49044000E+02    1.49613000E-02 
S    1    1.000000
   2.18776000E+02    7.35006000E-02 
S    1    1.000000
   6.36916000E+01    2.48937000E-01 
S    1    1.000000
   1.88282000E+01    6.02460000E-01 
S    1    1.000000
   2.72023000E+00    2.56202000E-01 
SP   3    1.000000
   3.06331000E+01    1.11906000E-01   3.83119000E-02 
   7.02614000E+00    9.21666000E-01   2.37403000E-01 
   2.11205000E+00   -2.56919000E-03   8.17592000E-01 
SP   1    1.000000
   6.84009000E-01    1.00000000E+00   1.00000000E+00 
SP   1    1.000000
   2.00878000E-01    1.00000000E+00   1.00000000E+00 
SP   1    1.000000
   6.39000000E-02    1.00000000E+00   1.00000000E+00 
SP   1    1.000000
   1.92469880E-02    1.00000000E+00   1.00000000E+00 
D    1    1.000000
   9.13000000E-01    1.00000000E+00 

11    0
S    1    1.000000
   4.56324000E+03    1.96665000E-03 
S    1    1.000000
   6.82024000E+02    1.52306000E-02 
S    1    1.000000
   1.54973000E+02    7.61269000E-02 
S    1    1.000000
   4.44553000E+01    2.60801000E-01 
S    1    1.000000
   1.30290000E+01    6.16462000E-01 
S    1    1.000000
   1.82773000E+00    2.21006000E-01 
SP   3    1.000000
   2.09642000E+01    1.14660000E-01   4.02487000E-02 
   4.80331000E+00    9.19999000E-01   2.37594000E-01 
   1.45933000E+00   -3.03068000E-03   8.15854000E-01 
SP   1    1.000000
   4.83456000E-01    1.00000000E+00   1.00000000E+00 
SP   1    1.000000
   1.45585000E-01    1.00000000E+00   1.00000000E+00 
SP   1    1.000000
   4.38000000E-02    1.00000000E+00   1.00000000E+00 
SP   1    1.000000
   1.31927711E-02    1.00000000E+00   1.00000000E+00 
D    1    1.000000
   6.26000000E-01    1.00000000E+00 

12    0
S    3    1.000000
   3.38650000E+01    2.54938000E-02 
   5.09479000E+00    1.90373000E-01 
   1.15879000E+00    8.52161000E-01 
S    1    1.000000
   3.25840000E-01    1.00000000E+00 
S    1    1.000000
   1.02741000E-01    1.00000000E+00 
S    1    1.000000
   3.60000000E-02    1.00000000E+00 
P    1    1.000000
   7.50000000E-01    1.00000000E+00 

[MO]
Sym=X
Ene=0.954094
Spin=Alpha
Occup=1
1    -1.82778286e-07
2    -1.40467569e-06
3    -7.07691205e-06
4    -2.40467794e-05
5    -6.03685887e-05
6    -4.28429263e-05
7    -6.50550161e-05
8    1.55012203e-05
9    -7.88536326e-06
10    8.65603198e-16
11    5.12882574e-05
12    -7.87647109e-05
13    2.50341e-05
14    3.19346142e-15
15    -0.000323456559
16    8.7954022e-05
17    -0.00014322423
18    2.04194833e-15
19    0.00323549841
20    0.000493209413
21    0.00127914442
22    2.04865824e-14
23    0.000311252884
24    -0.000212478233
25    7.9140435e-05
26    6.04372543e-14
27    -5.5895924e-05
28    2.05787418e-16
29    1.6193864e-05
30    1.59983084e-15
31    -4.22197795e-07
32    3.2756837e-05
33    1.22723417e-05
34    2.62684675e-05
35    0.00010672519
36    3.82896382e-05
37    2.18551742e-05
38    -9.05281613e-16
39    1.14739613e-05
40    4.95091954e-06
41    -2.27477365e-05
42    0.000866649517
43    -8.29411244e-06
44    1.0499805e-05
45    2.03824221e-16
46    3.06825126e-05
47    4.70187745e-05
48    -0.000105629787
49    -4.83802065e-05
50    -6.12163539e-06
51    -4.77748842e-05
52    -3.66653766e-16
53    0.00110956929
54    0.00858970191
55    0.0428506304
56    0.14711454
57    0.347565393
58    0.126418236
59    0.465482379
60    0.000643626514
61    -0.00044946425
62    -3.37679391e-15
63    0.00162765908
64    -0.000736258653
65    0.000482693352
66    -9.92800371e-15
67    0.00142890302
68    0.000374908639
69    -0.000206413049
70    -1.68185566e-16
71    -0.000414163586
72    -0.000717043497
73    0.000473231683
74    -1.93576701e-14
75    -0.000733264885
76    -1.94664533e-05
77    0.00010691487
78    -2.52967273e-14
79    -0.000277843258
80    -1.34690395e-15
81    -0.000241987973
82    2.06865662e-15
83    0.000158247717
84    -3.81301561e-07
85    -2.80539738e-06
86    -1.46298878e-05
87    -4.70003982e-05
88    -0.000138485198
89    -0.000181112039
90    -0.00020178144
91    0.000211773436
92    -0.000128240201
93    -3.71725825e-15
94    0.000595201879
95    0.000535198044
96    -0.000320754253
97    -5.97682059e-15
98    -0.000256758156
99    -0.000239884305
100    0.000137784514
101    -1.00644595e-14
102    0.000148478815
103    0.000284603053
104    -0.000152698878
105    -5.91971153e-15
106    -0.000895019744
107    -0.000144681429
108    0.000109826025
109    2.37617817e-14
110    -0.000239554757
111    8.44350936e-16
112    -0.000116367799
113    -6.99885075e-16
114    0.000126479908
115    -3.7128015e-07
116    -2.85602286e-06
117    -1.43753195e-05
118    -4.88640308e-05
119    -0.000120732263
120    -6.83829544e-05
121    -0.000140757973
122    1.7967033e-05
123    -2.8030194e-06
124    3.21878563e-15
125    4.43734546e-05
126    -5.22804402e-05
127    9.37467347e-06
128    7.23213404e-15
129    5.77322169e-05
130    0.000388883894
131    0.000130346944
132    5.56977284e-15
133    0.00333881677
134    -0.000433468384
135    -0.000850372311
136    5.39194349e-14
137    0.000588397712
138    -0.000130853084
139    -0.000125137969
140    2.42584505e-14
141    -9.78116633e-06
142    -6.29300105e-16
143    4.57505823e-06
144    1.12730432e-15
145    3.8720211e-05
146    -1.6419952e-09
147    1.07320859e-09
148    -9.31798736e-08
149    5.15844143e-08
150    -3.40505952e-06
151    -1.32078503e-05
152    7.10035974e-06
153    1.49290659e-06
154    8.80839854e-07
155    2.39472491e-15
156    3.46818873e-05
157    -2.17512219e-05
158    -1.59288266e-06
159    3.3137945e-15
160    -0.00013525781
161    6.33146939e-05
162    5.36280835e-05
163    9.82516503e-15
164    -0.000643017946
165    0.000218902825
166    0.000110906682
167    8.88588633e-16
168    -7.18424849e-05
169    3.1403207e-05
170    0.000112797751
171    -3.65225038e-15
172    -2.89972884e-06
173    -4.9971862e-16
174    5.62357599e-07
175    -5.41358387e-16
176    5.41451361e-06
177    -3.0237843e-07
178    -2.16825919e-06
179    -1.17006668e-05
180    -3.60894692e-05
181    -0.000123404213
182    -0.000225042523
183    -8.7101823e-05
184    -7.35594261e-05
185    -4.39668266e-05
186    3.34348203e-16
187    0.000547807912
188    -0.000626503795
189    -0.000292741867
190    -2.09294854e-15
191    -7.69048991e-05
192    0.00019166712
193    -1.60786174e-05
194    4.27070567e-15
195    -0.000376951918
196    0.000481712809
197    0.000262633137
198    -1.40047842e-14
199    1.25455705e-05
200    -0.000100692434
201    2.66369164e-05
202    1.58922684e-14
203    0.000228976349
204    1.0057337e-16
205    -9.85939409e-05
206    1.64206941e-15
207    0.000207351272
208    -2.95085762e-07
209    -2.10735976e-06
210    -1.14394316e-05
211    -3.50499128e-05
212    -0.000122194038
213    -0.000227328535
214    -8.04553884e-05
215    7.13827706e-06
216    8.12093547e-05
217    -1.6593641e-15
218    0.00054829202
219    -3.41781773e-05
220    0.000704030323
221    -1.31518266e-15
222    -7.07172773e-05
223    6.05120899e-05
224    -0.000169448791
225    -7.81906397e-15
226    -0.000439470809
227    9.83502992e-05
228    -0.000234349531
229    5.62763581e-15
230    8.86643168e-05
231    -0.000141448045
232    0.000302765638
233    -2.73510278e-14
234    -2.71298559e-05
235    -1.07456621e-15
236    -0.000101183275
237    7.21237862e-16
238    -0.000316881366
239    -2.75119108e-08
240    -1.86093413e-07
241    -1.1223795e-06
242    -3.10525333e-06
243    -1.45531907e-05
244    -3.56362734e-05
245    6.1444709e-06
246    8.49720467e-06
247    -2.90190612e-06
248    3.84281821e-15
249    7.42124749e-05
250    -6.8226665e-05
251    1.83735301e-05
252    5.76290057e-15
253    0.000126576264
254    -0.000116236985
255    5.75679901e-05
256    1.28914263e-14
257    -0.00537851278
258    0.000899614385
259    -0.000563128209
260    -2.06671763e-14
261    -7.8327662e-05
262    7.77268874e-05
263    -3.86789652e-05
264    -3.09995193e-14
265    2.4406769e-05
266    6.26241016e-16
267    1.7111147e-06
268    2.14290337e-16
269    2.45648824e-06
270    4.94337914e-06
271    5.23386329e-05
272    1.02893588e-05
273    -0.000106542153
274    -1.37973658e-05
275    7.27710668e-06
276    2.20400411e-15
[5D]