[Molden Format]
[Atoms] (Angs)
  C      1    6     -0.00714236     -1.70213747     -0.00000000
  H      2    1     -2.06882847     -1.44022412      0.00000000
  H      3    1     -0.12337987     -2.77567521      0.00000000
  H      4    1      0.04651892      1.98813947     -0.00000000
  C      5    6     -1.21953563      0.40211669      0.00000000
  O      6    8     -2.25921553      1.03043814      0.00000000
  C      7    6      1.28797806      0.34644937     -0.00000000
  O      8    8      2.31273661      1.00537216     -0.00000000
  N      9    7      0.03446295      0.97739857     -0.00000000
  N     10    7     -1.17287765     -0.98229824      0.00000000
  C     11    6      1.20107039     -1.10433419     -0.00000000
  H     12    1      2.11220096     -1.67699125     -0.00000000
[GTO]
1    0
S    1    1.000000
   4.56324000E+03    1.96665000E-03 
S    1    1.000000
   6.82024000E+02    1.52306000E-02 
S    1    1.000000
   1.54973000E+02    7.61269000E-02 
S    1    1.000000
   4.44553000E+01    2.60801000E-01 
S    1    1.000000
   1.30290000E+01    6.16462000E-01 
S    1    1.000000
   1.82773000E+00    2.21006000E-01 
SP   3    1.000000
   2.09642000E+01    1.14660000E-01   4.02487000E-02 
   4.80331000E+00    9.19999000E-01   2.37594000E-01 
   1.45933000E+00   -3.03068000E-03   8.15854000E-01 
SP   1    1.000000
   4.83456000E-01    1.00000000E+00   1.00000000E+00 
SP   1    1.000000
   1.45585000E-01    1.00000000E+00   1.00000000E+00 
SP   1    1.000000
   4.38000000E-02    1.00000000E+00   1.00000000E+00 
SP   1    1.000000
   1.31927711E-02    1.00000000E+00   1.00000000E+00 
D    1    1.000000
   6.26000000E-01    1.00000000E+00 

2    0
S    3    1.000000
   3.38650000E+01    2.54938000E-02 
   5.09479000E+00    1.90373000E-01 
   1.15879000E+00    8.52161000E-01 
S    1    1.000000
   3.25840000E-01    1.00000000E+00 
S    1    1.000000
   1.02741000E-01    1.00000000E+00 
S    1    1.000000
   3.60000000E-02    1.00000000E+00 
P    1    1.000000
   7.50000000E-01    1.00000000E+00 

3    0
S    3    1.000000
   3.38650000E+01    2.54938000E-02 
   5.09479000E+00    1.90373000E-01 
   1.15879000E+00    8.52161000E-01 
S    1    1.000000
   3.25840000E-01    1.00000000E+00 
S    1    1.000000
   1.02741000E-01    1.00000000E+00 
S    1    1.000000
   3.60000000E-02    1.00000000E+00 
P    1    1.000000
   7.50000000E-01    1.00000000E+00 

4    0
S    3    1.000000
   3.38650000E+01    2.54938000E-02 
   5.09479000E+00    1.90373000E-01 
   1.15879000E+00    8.52161000E-01 
S    1    1.000000
   3.25840000E-01    1.00000000E+00 
S    1    1.000000
   1.02741000E-01    1.00000000E+00 
S    1    1.000000
   3.60000000E-02    1.00000000E+00 
P    1    1.000000
   7.50000000E-01    1.00000000E+00 

5    0
S    1    1.000000
   4.56324000E+03    1.96665000E-03 
S    1    1.000000
   6.82024000E+02    1.52306000E-02 
S    1    1.000000
   1.54973000E+02    7.61269000E-02 
S    1    1.000000
   4.44553000E+01    2.60801000E-01 
S    1    1.000000
   1.30290000E+01    6.16462000E-01 
S    1    1.000000
   1.82773000E+00    2.21006000E-01 
SP   3    1.000000
   2.09642000E+01    1.14660000E-01   4.02487000E-02 
   4.80331000E+00    9.19999000E-01   2.37594000E-01 
   1.45933000E+00   -3.03068000E-03   8.15854000E-01 
SP   1    1.000000
   4.83456000E-01    1.00000000E+00   1.00000000E+00 
SP   1    1.000000
   1.45585000E-01    1.00000000E+00   1.00000000E+00 
SP   1    1.000000
   4.38000000E-02    1.00000000E+00   1.00000000E+00 
SP   1    1.000000
   1.31927711E-02    1.00000000E+00   1.00000000E+00 
D    1    1.000000
   6.26000000E-01    1.00000000E+00 

6    0
S    1    1.000000
   8.58850000E+03    1.89515000E-03 
S    1    1.000000
   1.29723000E+03    1.43859000E-02 
S    1    1.000000
   2.99296000E+02    7.07320000E-02 
S    1    1.000000
   8.73771000E+01    2.40001000E-01 
S    1    1.000000
   2.56789000E+01    5.94797000E-01 
S    1    1.000000
   3.74004000E+00    2.80802000E-01 
SP   3    1.000000
   4.21175000E+01    1.13889000E-01   3.65114000E-02 
   9.62837000E+00    9.20811000E-01   2.37153000E-01 
   2.85332000E+00   -3.27447000E-03   8.19702000E-01 
SP   1    1.000000
   9.05661000E-01    1.00000000E+00   1.00000000E+00 
SP   1    1.000000
   2.55611000E-01    1.00000000E+00   1.00000000E+00 
SP   1    1.000000
   8.45000000E-02    1.00000000E+00   1.00000000E+00 
SP   1    1.000000
   2.54518072E-02    1.00000000E+00   1.00000000E+00 
D    1    1.000000
   1.29200000E+00    1.00000000E+00 

7    0
S    1    1.000000
   4.56324000E+03    1.96665000E-03 
S    1    1.000000
   6.82024000E+02    1.52306000E-02 
S    1    1.000000
   1.54973000E+02    7.61269000E-02 
S    1    1.000000
   4.44553000E+01    2.60801000E-01 
S    1    1.000000
   1.30290000E+01    6.16462000E-01 
S    1    1.000000
   1.82773000E+00    2.21006000E-01 
SP   3    1.000000
   2.09642000E+01    1.14660000E-01   4.02487000E-02 
   4.80331000E+00    9.19999000E-01   2.37594000E-01 
   1.45933000E+00   -3.03068000E-03   8.15854000E-01 
SP   1    1.000000
   4.83456000E-01    1.00000000E+00   1.00000000E+00 
SP   1    1.000000
   1.45585000E-01    1.00000000E+00   1.00000000E+00 
SP   1    1.000000
   4.38000000E-02    1.00000000E+00   1.00000000E+00 
SP   1    1.000000
   1.31927711E-02    1.00000000E+00   1.00000000E+00 
D    1    1.000000
   6.26000000E-01    1.00000000E+00 

8    0
S    1    1.000000
   8.58850000E+03    1.89515000E-03 
S    1    1.000000
   1.29723000E+03    1.43859000E-02 
S    1    1.000000
   2.99296000E+02    7.07320000E-02 
S    1    1.000000
   8.73771000E+01    2.40001000E-01 
S    1    1.000000
   2.56789000E+01    5.94797000E-01 
S    1    1.000000
   3.74004000E+00    2.80802000E-01 
SP   3    1.000000
   4.21175000E+01    1.13889000E-01   3.65114000E-02 
   9.62837000E+00    9.20811000E-01   2.37153000E-01 
   2.85332000E+00   -3.27447000E-03   8.19702000E-01 
SP   1    1.000000
   9.05661000E-01    1.00000000E+00   1.00000000E+00 
SP   1    1.000000
   2.55611000E-01    1.00000000E+00   1.00000000E+00 
SP   1    1.000000
   8.45000000E-02    1.00000000E+00   1.00000000E+00 
SP   1    1.000000
   2.54518072E-02    1.00000000E+00   1.00000000E+00 
D    1    1.000000
   1.29200000E+00    1.00000000E+00 

9    0
S    1    1.000000
   6.29348000E+03    1.96979000E-03 
S    1    1.000000
   9.49044000E+02    1.49613000E-02 
S    1    1.000000
   2.18776000E+02    7.35006000E-02 
S    1    1.000000
   6.36916000E+01    2.48937000E-01 
S    1    1.000000
   1.88282000E+01    6.02460000E-01 
S    1    1.000000
   2.72023000E+00    2.56202000E-01 
SP   3    1.000000
   3.06331000E+01    1.11906000E-01   3.83119000E-02 
   7.02614000E+00    9.21666000E-01   2.37403000E-01 
   2.11205000E+00   -2.56919000E-03   8.17592000E-01 
SP   1    1.000000
   6.84009000E-01    1.00000000E+00   1.00000000E+00 
SP   1    1.000000
   2.00878000E-01    1.00000000E+00   1.00000000E+00 
SP   1    1.000000
   6.39000000E-02    1.00000000E+00   1.00000000E+00 
SP   1    1.000000
   1.92469880E-02    1.00000000E+00   1.00000000E+00 
D    1    1.000000
   9.13000000E-01    1.00000000E+00 

10    0
S    1    1.000000
   6.29348000E+03    1.96979000E-03 
S    1    1.000000
   9.49044000E+02    1.49613000E-02 
S    1    1.000000
   2.18776000E+02    7.35006000E-02 
S    1    1.000000
   6.36916000E+01    2.48937000E-01 
S    1    1.000000
   1.88282000E+01    6.02460000E-01 
S    1    1.000000
   2.72023000E+00    2.56202000E-01 
SP   3    1.000000
   3.06331000E+01    1.11906000E-01   3.83119000E-02 
   7.02614000E+00    9.21666000E-01   2.37403000E-01 
   2.11205000E+00   -2.56919000E-03   8.17592000E-01 
SP   1    1.000000
   6.84009000E-01    1.00000000E+00   1.00000000E+00 
SP   1    1.000000
   2.00878000E-01    1.00000000E+00   1.00000000E+00 
SP   1    1.000000
   6.39000000E-02    1.00000000E+00   1.00000000E+00 
SP   1    1.000000
   1.92469880E-02    1.00000000E+00   1.00000000E+00 
D    1    1.000000
   9.13000000E-01    1.00000000E+00 

11    0
S    1    1.000000
   4.56324000E+03    1.96665000E-03 
S    1    1.000000
   6.82024000E+02    1.52306000E-02 
S    1    1.000000
   1.54973000E+02    7.61269000E-02 
S    1    1.000000
   4.44553000E+01    2.60801000E-01 
S    1    1.000000
   1.30290000E+01    6.16462000E-01 
S    1    1.000000
   1.82773000E+00    2.21006000E-01 
SP   3    1.000000
   2.09642000E+01    1.14660000E-01   4.02487000E-02 
   4.80331000E+00    9.19999000E-01   2.37594000E-01 
   1.45933000E+00   -3.03068000E-03   8.15854000E-01 
SP   1    1.000000
   4.83456000E-01    1.00000000E+00   1.00000000E+00 
SP   1    1.000000
   1.45585000E-01    1.00000000E+00   1.00000000E+00 
SP   1    1.000000
   4.38000000E-02    1.00000000E+00   1.00000000E+00 
SP   1    1.000000
   1.31927711E-02    1.00000000E+00   1.00000000E+00 
D    1    1.000000
   6.26000000E-01    1.00000000E+00 

12    0
S    3    1.000000
   3.38650000E+01    2.54938000E-02 
   5.09479000E+00    1.90373000E-01 
   1.15879000E+00    8.52161000E-01 
S    1    1.000000
   3.25840000E-01    1.00000000E+00 
S    1    1.000000
   1.02741000E-01    1.00000000E+00 
S    1    1.000000
   3.60000000E-02    1.00000000E+00 
P    1    1.000000
   7.50000000E-01    1.00000000E+00 

[MO]
Sym=X
Ene=0.084607
Spin=Alpha
Occup=1
1    0.00110890314
2    0.00858471618
3    0.0428241604
4    0.147029009
5    0.347327165
6    0.126650403
7    0.465111898
8    -0.00111018086
9    0.000317213906
10    -8.54714948e-16
11    0.00168935152
12    0.00108183314
13    -5.33820003e-05
14    2.27096445e-15
15    0.00144460393
16    -0.000312995807
17    0.000839852969
18    -8.54080677e-15
19    0.000791399476
20    -0.000708589987
21    0.000510379755
22    8.85356202e-14
23    -0.000159038784
24    7.72047692e-05
25    -4.23750094e-05
26    -6.65210431e-14
27    0.000375200724
28    -3.26916953e-16
29    -0.000238246672
30    6.19836213e-17
31    9.63964854e-05
32    2.953063e-05
33    5.25828769e-05
34    4.35842122e-05
35    -8.64975394e-05
36    4.72298798e-05
37    1.52663406e-05
38    -2.08989875e-16
39    0.000380965788
40    0.000467166501
41    0.000226135961
42    0.000114172328
43    4.38228074e-05
44    0.000310347077
45    -1.33418623e-16
46    1.33612474e-05
47    -5.50626575e-05
48    0.000244228026
49    0.000257078527
50    5.59717254e-06
51    3.91702843e-06
52    6.80203468e-16
53    7.45131758e-07
54    5.80118841e-06
55    2.87075625e-05
56    9.94379133e-05
57    0.000225430932
58    3.66139164e-05
59    0.000338448899
60    -5.07500805e-06
61    2.10957088e-05
62    2.29802063e-15
63    0.000114008174
64    1.96184492e-05
65    -8.46465323e-05
66    2.27940197e-16
67    0.000212018693
68    -0.000655575502
69    0.000411022763
70    4.89297381e-15
71    0.000685626574
72    -0.000328337733
73    0.00057089399
74    1.01440179e-13
75    0.00049980832
76    0.000170242703
77    8.39562093e-06
78    8.16379427e-14
79    -1.81833448e-05
80    4.93015734e-16
81    4.15704758e-06
82    -7.18629434e-16
83    -4.39087161e-05
84    -9.82694004e-09
85    -4.83024206e-08
86    -4.28407187e-07
87    -7.42165745e-07
88    -8.78356963e-06
89    -2.74070476e-05
90    1.12399052e-05
91    -4.14635031e-06
92    1.89559799e-06
93    1.54086367e-15
94    7.14264676e-05
95    2.751652e-05
96    -2.63724941e-05
97    1.52792966e-15
98    -0.000310380226
99    -0.000159963329
100    8.89315765e-05
101    6.90819949e-15
102    -0.0010541315
103    -0.000168511319
104    0.000140949146
105    -7.81972648e-15
106    -0.00136287008
107    -0.000273403606
108    5.34952906e-05
109    -2.76266836e-14
110    -2.43409042e-06
111    -7.72753184e-16
112    6.89176981e-07
113    4.86279164e-16
114    -5.23888398e-06
115    1.6430304e-05
116    0.00012724776
117    0.000634403245
118    0.00217949452
119    0.00513506201
120    0.00181229894
121    0.00692653107
122    -4.05032719e-06
123    3.11468635e-05
124    1.17740401e-16
125    0.000133321292
126    -1.98163017e-05
127    -0.000139259954
128    3.02222938e-16
129    0.000223130602
130    -0.000183455843
131    -9.22258978e-05
132    -4.59198307e-15
133    -0.00023070057
134    0.000276965542
135    0.000297710506
136    1.01886774e-13
137    2.93857223e-05
138    0.000184244884
139    -7.12805961e-05
140    -3.40785662e-14
141    4.24018237e-05
142    -1.57984841e-16
143    -1.19539587e-05
144    -3.52735857e-16
145    -6.11758415e-05
146    3.71532456e-09
147    2.92477924e-08
148    1.33031841e-07
149    4.84652151e-07
150    1.01564604e-06
151    -5.9256847e-07
152    6.49225049e-07
153    -2.12627398e-06
154    1.16625585e-06
155    4.91882658e-16
156    3.98628069e-06
157    -1.69813485e-05
158    -2.71600302e-05
159    -2.94578201e-15
160    0.000100125096
161    7.12668786e-06
162    2.12582579e-06
163    7.04734043e-15
164    -0.000134185532
165    -3.8841663e-06
166    -1.60958531e-05
167    -1.95379314e-14
168    -6.21349502e-05
169    3.14654377e-05
170    -4.46673922e-05
171    3.60382041e-15
172    8.86979058e-06
173    -5.83905429e-17
174    -3.05766048e-06
175    -2.61030469e-16
176    -5.57292587e-06
177    -2.4593703e-08
178    -1.4368671e-07
179    -1.01883499e-06
180    -2.25131344e-06
181    -1.6431273e-05
182    -4.4566416e-05
183    1.46801479e-05
184    1.9857025e-07
185    7.80541328e-06
186    2.41101765e-15
187    8.00171004e-05
188    7.08573895e-06
189    -3.6557286e-05
190    -4.11374291e-15
191    3.93933125e-05
192    -5.57281348e-05
193    1.35847882e-05
194    2.0307933e-14
195    8.15030647e-05
196    0.000147890248
197    -0.000549857769
198    -6.88662854e-14
199    0.000778954453
200    -0.000272238608
201    -0.000129936344
202    -6.84854103e-14
203    1.38222737e-06
204    -2.28368686e-16
205    -4.87167403e-06
206    -4.14669947e-16
207    1.00829795e-05
208    3.21072018e-07
209    2.61934939e-06
210    1.14554485e-05
211    4.36011215e-05
212    5.8240568e-05
213    -0.000196686388
214    0.000201459279
215    6.69463747e-05
216    -4.04191668e-05
217    3.01726251e-15
218    0.000677330532
219    0.000735314179
220    -0.00044421174
221    -6.8132802e-15
222    -8.6144398e-05
223    -1.32802138e-05
224    8.75125463e-05
225    2.29062717e-14
226    -0.00128877932
227    -0.000434428231
228    0.00037744985
229    -7.06201152e-14
230    -0.000555585052
231    -0.000318951226
232    6.66820699e-05
233    -2.70593995e-14
234    -0.000329094762
235    5.85351556e-17
236    -0.000130594793
237    1.62744494e-16
238    0.000183884971
239    2.64883639e-05
240    0.000204911749
241    0.00102313559
242    0.00350841953
243    0.00832700257
244    0.00311777415
245    0.0109581085
246    -0.000154731221
247    -6.6408946e-05
248    2.99506855e-16
249    0.000217095078
250    -0.000239052113
251    -0.000102289923
252    -2.75849977e-15
253    -0.000759726107
254    0.000574928716
255    -0.000254746797
256    1.07657281e-14
257    0.00133723411
258    -5.16405527e-05
259    -0.000587303453
260    -1.00359245e-13
261    -0.000204964655
262    -0.00016614746
263    -9.75190451e-05
264    7.00357884e-14
265    0.0001660698
266    4.55376738e-16
267    4.83590802e-05
268    -6.66015544e-16
269    0.000147330356
270    3.50336376e-05
271    3.41341754e-05
272    -0.000355937418
273    -0.000269717567
274    -9.22592216e-05
275    -1.01781112e-05
276    -6.82514973e-16
[5D]