[Molden Format]
[Atoms] (Angs)
  C      1    6     -0.00714236     -1.70213747     -0.00000000
  H      2    1     -2.06882847     -1.44022412      0.00000000
  H      3    1     -0.12337987     -2.77567521      0.00000000
  H      4    1      0.04651892      1.98813947     -0.00000000
  C      5    6     -1.21953563      0.40211669      0.00000000
  O      6    8     -2.25921553      1.03043814      0.00000000
  C      7    6      1.28797806      0.34644937     -0.00000000
  O      8    8      2.31273661      1.00537216     -0.00000000
  N      9    7      0.03446295      0.97739857     -0.00000000
  N     10    7     -1.17287765     -0.98229824      0.00000000
  C     11    6      1.20107039     -1.10433419     -0.00000000
  H     12    1      2.11220096     -1.67699125     -0.00000000
[GTO]
1    0
S    1    1.000000
   4.56324000E+03    1.96665000E-03 
S    1    1.000000
   6.82024000E+02    1.52306000E-02 
S    1    1.000000
   1.54973000E+02    7.61269000E-02 
S    1    1.000000
   4.44553000E+01    2.60801000E-01 
S    1    1.000000
   1.30290000E+01    6.16462000E-01 
S    1    1.000000
   1.82773000E+00    2.21006000E-01 
SP   3    1.000000
   2.09642000E+01    1.14660000E-01   4.02487000E-02 
   4.80331000E+00    9.19999000E-01   2.37594000E-01 
   1.45933000E+00   -3.03068000E-03   8.15854000E-01 
SP   1    1.000000
   4.83456000E-01    1.00000000E+00   1.00000000E+00 
SP   1    1.000000
   1.45585000E-01    1.00000000E+00   1.00000000E+00 
SP   1    1.000000
   4.38000000E-02    1.00000000E+00   1.00000000E+00 
SP   1    1.000000
   1.31927711E-02    1.00000000E+00   1.00000000E+00 
D    1    1.000000
   6.26000000E-01    1.00000000E+00 

2    0
S    3    1.000000
   3.38650000E+01    2.54938000E-02 
   5.09479000E+00    1.90373000E-01 
   1.15879000E+00    8.52161000E-01 
S    1    1.000000
   3.25840000E-01    1.00000000E+00 
S    1    1.000000
   1.02741000E-01    1.00000000E+00 
S    1    1.000000
   3.60000000E-02    1.00000000E+00 
P    1    1.000000
   7.50000000E-01    1.00000000E+00 

3    0
S    3    1.000000
   3.38650000E+01    2.54938000E-02 
   5.09479000E+00    1.90373000E-01 
   1.15879000E+00    8.52161000E-01 
S    1    1.000000
   3.25840000E-01    1.00000000E+00 
S    1    1.000000
   1.02741000E-01    1.00000000E+00 
S    1    1.000000
   3.60000000E-02    1.00000000E+00 
P    1    1.000000
   7.50000000E-01    1.00000000E+00 

4    0
S    3    1.000000
   3.38650000E+01    2.54938000E-02 
   5.09479000E+00    1.90373000E-01 
   1.15879000E+00    8.52161000E-01 
S    1    1.000000
   3.25840000E-01    1.00000000E+00 
S    1    1.000000
   1.02741000E-01    1.00000000E+00 
S    1    1.000000
   3.60000000E-02    1.00000000E+00 
P    1    1.000000
   7.50000000E-01    1.00000000E+00 

5    0
S    1    1.000000
   4.56324000E+03    1.96665000E-03 
S    1    1.000000
   6.82024000E+02    1.52306000E-02 
S    1    1.000000
   1.54973000E+02    7.61269000E-02 
S    1    1.000000
   4.44553000E+01    2.60801000E-01 
S    1    1.000000
   1.30290000E+01    6.16462000E-01 
S    1    1.000000
   1.82773000E+00    2.21006000E-01 
SP   3    1.000000
   2.09642000E+01    1.14660000E-01   4.02487000E-02 
   4.80331000E+00    9.19999000E-01   2.37594000E-01 
   1.45933000E+00   -3.03068000E-03   8.15854000E-01 
SP   1    1.000000
   4.83456000E-01    1.00000000E+00   1.00000000E+00 
SP   1    1.000000
   1.45585000E-01    1.00000000E+00   1.00000000E+00 
SP   1    1.000000
   4.38000000E-02    1.00000000E+00   1.00000000E+00 
SP   1    1.000000
   1.31927711E-02    1.00000000E+00   1.00000000E+00 
D    1    1.000000
   6.26000000E-01    1.00000000E+00 

6    0
S    1    1.000000
   8.58850000E+03    1.89515000E-03 
S    1    1.000000
   1.29723000E+03    1.43859000E-02 
S    1    1.000000
   2.99296000E+02    7.07320000E-02 
S    1    1.000000
   8.73771000E+01    2.40001000E-01 
S    1    1.000000
   2.56789000E+01    5.94797000E-01 
S    1    1.000000
   3.74004000E+00    2.80802000E-01 
SP   3    1.000000
   4.21175000E+01    1.13889000E-01   3.65114000E-02 
   9.62837000E+00    9.20811000E-01   2.37153000E-01 
   2.85332000E+00   -3.27447000E-03   8.19702000E-01 
SP   1    1.000000
   9.05661000E-01    1.00000000E+00   1.00000000E+00 
SP   1    1.000000
   2.55611000E-01    1.00000000E+00   1.00000000E+00 
SP   1    1.000000
   8.45000000E-02    1.00000000E+00   1.00000000E+00 
SP   1    1.000000
   2.54518072E-02    1.00000000E+00   1.00000000E+00 
D    1    1.000000
   1.29200000E+00    1.00000000E+00 

7    0
S    1    1.000000
   4.56324000E+03    1.96665000E-03 
S    1    1.000000
   6.82024000E+02    1.52306000E-02 
S    1    1.000000
   1.54973000E+02    7.61269000E-02 
S    1    1.000000
   4.44553000E+01    2.60801000E-01 
S    1    1.000000
   1.30290000E+01    6.16462000E-01 
S    1    1.000000
   1.82773000E+00    2.21006000E-01 
SP   3    1.000000
   2.09642000E+01    1.14660000E-01   4.02487000E-02 
   4.80331000E+00    9.19999000E-01   2.37594000E-01 
   1.45933000E+00   -3.03068000E-03   8.15854000E-01 
SP   1    1.000000
   4.83456000E-01    1.00000000E+00   1.00000000E+00 
SP   1    1.000000
   1.45585000E-01    1.00000000E+00   1.00000000E+00 
SP   1    1.000000
   4.38000000E-02    1.00000000E+00   1.00000000E+00 
SP   1    1.000000
   1.31927711E-02    1.00000000E+00   1.00000000E+00 
D    1    1.000000
   6.26000000E-01    1.00000000E+00 

8    0
S    1    1.000000
   8.58850000E+03    1.89515000E-03 
S    1    1.000000
   1.29723000E+03    1.43859000E-02 
S    1    1.000000
   2.99296000E+02    7.07320000E-02 
S    1    1.000000
   8.73771000E+01    2.40001000E-01 
S    1    1.000000
   2.56789000E+01    5.94797000E-01 
S    1    1.000000
   3.74004000E+00    2.80802000E-01 
SP   3    1.000000
   4.21175000E+01    1.13889000E-01   3.65114000E-02 
   9.62837000E+00    9.20811000E-01   2.37153000E-01 
   2.85332000E+00   -3.27447000E-03   8.19702000E-01 
SP   1    1.000000
   9.05661000E-01    1.00000000E+00   1.00000000E+00 
SP   1    1.000000
   2.55611000E-01    1.00000000E+00   1.00000000E+00 
SP   1    1.000000
   8.45000000E-02    1.00000000E+00   1.00000000E+00 
SP   1    1.000000
   2.54518072E-02    1.00000000E+00   1.00000000E+00 
D    1    1.000000
   1.29200000E+00    1.00000000E+00 

9    0
S    1    1.000000
   6.29348000E+03    1.96979000E-03 
S    1    1.000000
   9.49044000E+02    1.49613000E-02 
S    1    1.000000
   2.18776000E+02    7.35006000E-02 
S    1    1.000000
   6.36916000E+01    2.48937000E-01 
S    1    1.000000
   1.88282000E+01    6.02460000E-01 
S    1    1.000000
   2.72023000E+00    2.56202000E-01 
SP   3    1.000000
   3.06331000E+01    1.11906000E-01   3.83119000E-02 
   7.02614000E+00    9.21666000E-01   2.37403000E-01 
   2.11205000E+00   -2.56919000E-03   8.17592000E-01 
SP   1    1.000000
   6.84009000E-01    1.00000000E+00   1.00000000E+00 
SP   1    1.000000
   2.00878000E-01    1.00000000E+00   1.00000000E+00 
SP   1    1.000000
   6.39000000E-02    1.00000000E+00   1.00000000E+00 
SP   1    1.000000
   1.92469880E-02    1.00000000E+00   1.00000000E+00 
D    1    1.000000
   9.13000000E-01    1.00000000E+00 

10    0
S    1    1.000000
   6.29348000E+03    1.96979000E-03 
S    1    1.000000
   9.49044000E+02    1.49613000E-02 
S    1    1.000000
   2.18776000E+02    7.35006000E-02 
S    1    1.000000
   6.36916000E+01    2.48937000E-01 
S    1    1.000000
   1.88282000E+01    6.02460000E-01 
S    1    1.000000
   2.72023000E+00    2.56202000E-01 
SP   3    1.000000
   3.06331000E+01    1.11906000E-01   3.83119000E-02 
   7.02614000E+00    9.21666000E-01   2.37403000E-01 
   2.11205000E+00   -2.56919000E-03   8.17592000E-01 
SP   1    1.000000
   6.84009000E-01    1.00000000E+00   1.00000000E+00 
SP   1    1.000000
   2.00878000E-01    1.00000000E+00   1.00000000E+00 
SP   1    1.000000
   6.39000000E-02    1.00000000E+00   1.00000000E+00 
SP   1    1.000000
   1.92469880E-02    1.00000000E+00   1.00000000E+00 
D    1    1.000000
   9.13000000E-01    1.00000000E+00 

11    0
S    1    1.000000
   4.56324000E+03    1.96665000E-03 
S    1    1.000000
   6.82024000E+02    1.52306000E-02 
S    1    1.000000
   1.54973000E+02    7.61269000E-02 
S    1    1.000000
   4.44553000E+01    2.60801000E-01 
S    1    1.000000
   1.30290000E+01    6.16462000E-01 
S    1    1.000000
   1.82773000E+00    2.21006000E-01 
SP   3    1.000000
   2.09642000E+01    1.14660000E-01   4.02487000E-02 
   4.80331000E+00    9.19999000E-01   2.37594000E-01 
   1.45933000E+00   -3.03068000E-03   8.15854000E-01 
SP   1    1.000000
   4.83456000E-01    1.00000000E+00   1.00000000E+00 
SP   1    1.000000
   1.45585000E-01    1.00000000E+00   1.00000000E+00 
SP   1    1.000000
   4.38000000E-02    1.00000000E+00   1.00000000E+00 
SP   1    1.000000
   1.31927711E-02    1.00000000E+00   1.00000000E+00 
D    1    1.000000
   6.26000000E-01    1.00000000E+00 

12    0
S    3    1.000000
   3.38650000E+01    2.54938000E-02 
   5.09479000E+00    1.90373000E-01 
   1.15879000E+00    8.52161000E-01 
S    1    1.000000
   3.25840000E-01    1.00000000E+00 
S    1    1.000000
   1.02741000E-01    1.00000000E+00 
S    1    1.000000
   3.60000000E-02    1.00000000E+00 
P    1    1.000000
   7.50000000E-01    1.00000000E+00 

[MO]
Sym=X
Ene=0.951225
Spin=Alpha
Occup=1
1    -0.00110927557
2    -0.00858759988
3    -0.0428385443
4    -0.147078409
5    -0.347443788
6    -0.126694154
7    -0.465268979
8    0.00111197686
9    -0.000316577981
10    6.84763244e-16
11    -0.0016817108
12    -0.00107367191
13    5.87640372e-05
14    -2.59182862e-15
15    -0.00145900858
16    0.000308238007
17    -0.000846300352
18    9.02835841e-15
19    -0.000849359994
20    0.000707011615
21    -0.000536977188
22    -8.45596813e-14
23    0.000156913565
24    -7.57761505e-05
25    3.58184751e-05
26    7.15984975e-14
27    -0.000370657351
28    1.45233274e-16
29    0.000238047505
30    1.39000698e-15
31    -9.35727646e-05
32    -2.91379065e-05
33    -5.24072921e-05
34    -3.90173306e-05
35    9.55298925e-05
36    -4.69515808e-05
37    -1.53614072e-05
38    -1.43390412e-15
39    -0.000380724143
40    -0.000465082759
41    -0.000232004411
42    -0.00012322513
43    -4.28737387e-05
44    -0.000309268173
45    5.75382344e-17
46    -1.26810961e-05
47    5.63567369e-05
48    -0.00024219986
49    -0.000257650009
50    -5.71128139e-06
51    -4.61174867e-06
52    -1.42611234e-15
53    -2.0866869e-07
54    -1.64743159e-06
55    -7.99145157e-06
56    -2.82950109e-05
57    -5.75556432e-05
58    2.35835623e-05
59    -0.000112885508
60    5.07650567e-06
61    -2.13221664e-05
62    -6.60602807e-15
63    -0.000111102324
64    -1.90771363e-05
65    8.45664762e-05
66    -8.11110808e-15
67    -0.000219685366
68    0.000642856978
69    -0.000404516931
70    -1.3147021e-14
71    -0.000676785097
72    0.000323349514
73    -0.000575610425
74    -1.01983474e-13
75    -0.000506851787
76    -0.000174136623
77    -8.73141509e-06
78    -7.54344121e-14
79    1.81587745e-05
80    -9.38451911e-16
81    -4.12937135e-06
82    2.08264792e-15
83    4.45518954e-05
84    2.63721804e-09
85    -6.04777068e-09
86    1.59341517e-07
87    -1.64159637e-07
88    6.4518875e-06
89    2.59869514e-05
90    -1.43241409e-05
91    4.18828757e-06
92    -1.919928e-06
93    -4.75521154e-15
94    -7.03705022e-05
95    -2.67867705e-05
96    2.6119189e-05
97    -7.04563091e-15
98    0.000306533045
99    0.000158074578
100    -8.7619491e-05
101    -1.46540623e-14
102    0.00103615837
103    0.000163546201
104    -0.000139069722
105    1.49421628e-15
106    0.00135768039
107    0.000274752917
108    -4.89870978e-05
109    2.7970329e-14
110    2.3773526e-06
111    1.36640424e-15
112    -7.12752043e-07
113    -1.39811839e-15
114    5.38535712e-06
115    -6.10807003e-09
116    -9.96920279e-08
117    -1.19023766e-07
118    -1.87658489e-06
119    9.44047962e-06
120    5.77820721e-05
121    -3.63222362e-05
122    -6.97684546e-06
123    -2.48645374e-05
124    2.05751847e-15
125    -0.00010228988
126    3.12717707e-05
127    0.00012773161
128    3.82027804e-15
129    -0.000208025128
130    0.000185923723
131    0.000109959771
132    1.02503567e-14
133    0.000174880878
134    -0.000265468747
135    -0.00024923048
136    -9.43621776e-14
137    -3.68546117e-05
138    -0.000189926814
139    7.20426007e-05
140    4.12405612e-14
141    -3.67180345e-05
142    -4.20899094e-17
143    7.27522484e-06
144    1.9529894e-15
145    5.6051914e-05
146    4.25832166e-10
147    4.25988494e-09
148    1.40897097e-08
149    7.29704002e-08
150    -1.29445245e-07
151    -1.31456792e-06
152    1.20166585e-06
153    -8.30383422e-07
154    -2.91269551e-06
155    1.46282102e-15
156    6.51939582e-06
157    8.1386656e-06
158    2.1119866e-05
159    6.34407196e-15
160    -0.000106637277
161    -2.11289598e-06
162    -3.62827104e-07
163    -1.52217056e-15
164    0.000117902058
165    4.48245518e-06
166    1.3979532e-05
167    2.69077604e-14
168    6.66487112e-06
169    -1.81239958e-05
170    4.70200652e-05
171    4.56325118e-15
172    -4.71811527e-06
173    -2.77179173e-16
174    1.34024998e-06
175    -1.10093498e-16
176    6.95403064e-06
177    -1.33794955e-09
178    -5.03932138e-08
179    4.21114803e-08
180    -9.72098355e-07
181    7.75394445e-06
182    3.71777004e-05
183    -2.42626115e-05
184    1.42647284e-07
185    -8.21426905e-06
186    -3.60736731e-15
187    -7.0749231e-05
188    3.97578979e-06
189    3.10473146e-05
190    1.99983006e-15
191    -3.50823163e-05
192    5.09961397e-05
193    -1.86320375e-05
194    -2.24418068e-14
195    -9.24263064e-05
196    -0.000165919045
197    0.000546414143
198    6.95496866e-14
199    -0.000763959488
200    0.000289035067
201    0.000129059759
202    7.42178317e-14
203    -5.67408407e-06
204    3.01464471e-16
205    2.92771489e-06
206    1.83862476e-15
207    -6.57262929e-06
208    3.16299524e-07
209    2.23479533e-06
210    1.23201058e-05
211    3.71351112e-05
212    0.000136660821
213    0.000279299566
214    7.08043117e-05
215    -6.72996734e-05
216    4.05552834e-05
217    -5.20539312e-15
218    -0.000673004265
219    -0.000734013958
220    0.000444316283
221    2.73365969e-15
222    8.94898217e-05
223    1.48806691e-05
224    -8.47342967e-05
225    -2.83375645e-14
226    0.00130439395
227    0.000447174788
228    -0.000372919008
229    6.79551831e-14
230    0.000574768143
231    0.000319500935
232    -5.83931682e-05
233    3.21582021e-14
234    0.000328723741
235    -8.44089571e-16
236    0.000130420963
237    1.58240654e-16
238    -0.000183643488
239    -1.2597609e-05
240    -9.73736697e-05
241    -0.000486701105
242    -0.00166659677
243    -0.00397617228
244    -0.00152718366
245    -0.00513469918
246    0.000152496697
247    7.06564786e-05
248    1.36777411e-15
249    -0.000189884713
250    0.000239617114
251    0.00010771028
252    5.81396691e-15
253    0.000780231771
254    -0.000584284426
255    0.000258362785
256    -5.85162738e-15
257    -0.00119261388
258    3.5431645e-05
259    0.000621176866
260    1.06498007e-13
261    0.000217788659
262    0.000169134287
263    0.000106100476
264    -6.0873505e-14
265    -0.000164738945
266    1.88695333e-16
267    -4.98997268e-05
268    1.17726364e-15
269    -0.000150494507
270    -2.99367918e-05
271    -2.71374e-05
272    0.000356911022
273    0.000279624256
274    8.84036887e-05
275    1.31681069e-05
276    1.81570301e-15
[5D]