[Molden Format]
[Atoms] (Angs)
  C      1    6     -0.00714236     -1.70213747     -0.00000000
  H      2    1     -2.06882847     -1.44022412      0.00000000
  H      3    1     -0.12337987     -2.77567521      0.00000000
  H      4    1      0.04651892      1.98813947     -0.00000000
  C      5    6     -1.21953563      0.40211669      0.00000000
  O      6    8     -2.25921553      1.03043814      0.00000000
  C      7    6      1.28797806      0.34644937     -0.00000000
  O      8    8      2.31273661      1.00537216     -0.00000000
  N      9    7      0.03446295      0.97739857     -0.00000000
  N     10    7     -1.17287765     -0.98229824      0.00000000
  C     11    6      1.20107039     -1.10433419     -0.00000000
  H     12    1      2.11220096     -1.67699125     -0.00000000
[GTO]
1    0
S    1    1.000000
   4.56324000E+03    1.96665000E-03 
S    1    1.000000
   6.82024000E+02    1.52306000E-02 
S    1    1.000000
   1.54973000E+02    7.61269000E-02 
S    1    1.000000
   4.44553000E+01    2.60801000E-01 
S    1    1.000000
   1.30290000E+01    6.16462000E-01 
S    1    1.000000
   1.82773000E+00    2.21006000E-01 
SP   3    1.000000
   2.09642000E+01    1.14660000E-01   4.02487000E-02 
   4.80331000E+00    9.19999000E-01   2.37594000E-01 
   1.45933000E+00   -3.03068000E-03   8.15854000E-01 
SP   1    1.000000
   4.83456000E-01    1.00000000E+00   1.00000000E+00 
SP   1    1.000000
   1.45585000E-01    1.00000000E+00   1.00000000E+00 
SP   1    1.000000
   4.38000000E-02    1.00000000E+00   1.00000000E+00 
SP   1    1.000000
   1.31927711E-02    1.00000000E+00   1.00000000E+00 
D    1    1.000000
   6.26000000E-01    1.00000000E+00 

2    0
S    3    1.000000
   3.38650000E+01    2.54938000E-02 
   5.09479000E+00    1.90373000E-01 
   1.15879000E+00    8.52161000E-01 
S    1    1.000000
   3.25840000E-01    1.00000000E+00 
S    1    1.000000
   1.02741000E-01    1.00000000E+00 
S    1    1.000000
   3.60000000E-02    1.00000000E+00 
P    1    1.000000
   7.50000000E-01    1.00000000E+00 

3    0
S    3    1.000000
   3.38650000E+01    2.54938000E-02 
   5.09479000E+00    1.90373000E-01 
   1.15879000E+00    8.52161000E-01 
S    1    1.000000
   3.25840000E-01    1.00000000E+00 
S    1    1.000000
   1.02741000E-01    1.00000000E+00 
S    1    1.000000
   3.60000000E-02    1.00000000E+00 
P    1    1.000000
   7.50000000E-01    1.00000000E+00 

4    0
S    3    1.000000
   3.38650000E+01    2.54938000E-02 
   5.09479000E+00    1.90373000E-01 
   1.15879000E+00    8.52161000E-01 
S    1    1.000000
   3.25840000E-01    1.00000000E+00 
S    1    1.000000
   1.02741000E-01    1.00000000E+00 
S    1    1.000000
   3.60000000E-02    1.00000000E+00 
P    1    1.000000
   7.50000000E-01    1.00000000E+00 

5    0
S    1    1.000000
   4.56324000E+03    1.96665000E-03 
S    1    1.000000
   6.82024000E+02    1.52306000E-02 
S    1    1.000000
   1.54973000E+02    7.61269000E-02 
S    1    1.000000
   4.44553000E+01    2.60801000E-01 
S    1    1.000000
   1.30290000E+01    6.16462000E-01 
S    1    1.000000
   1.82773000E+00    2.21006000E-01 
SP   3    1.000000
   2.09642000E+01    1.14660000E-01   4.02487000E-02 
   4.80331000E+00    9.19999000E-01   2.37594000E-01 
   1.45933000E+00   -3.03068000E-03   8.15854000E-01 
SP   1    1.000000
   4.83456000E-01    1.00000000E+00   1.00000000E+00 
SP   1    1.000000
   1.45585000E-01    1.00000000E+00   1.00000000E+00 
SP   1    1.000000
   4.38000000E-02    1.00000000E+00   1.00000000E+00 
SP   1    1.000000
   1.31927711E-02    1.00000000E+00   1.00000000E+00 
D    1    1.000000
   6.26000000E-01    1.00000000E+00 

6    0
S    1    1.000000
   8.58850000E+03    1.89515000E-03 
S    1    1.000000
   1.29723000E+03    1.43859000E-02 
S    1    1.000000
   2.99296000E+02    7.07320000E-02 
S    1    1.000000
   8.73771000E+01    2.40001000E-01 
S    1    1.000000
   2.56789000E+01    5.94797000E-01 
S    1    1.000000
   3.74004000E+00    2.80802000E-01 
SP   3    1.000000
   4.21175000E+01    1.13889000E-01   3.65114000E-02 
   9.62837000E+00    9.20811000E-01   2.37153000E-01 
   2.85332000E+00   -3.27447000E-03   8.19702000E-01 
SP   1    1.000000
   9.05661000E-01    1.00000000E+00   1.00000000E+00 
SP   1    1.000000
   2.55611000E-01    1.00000000E+00   1.00000000E+00 
SP   1    1.000000
   8.45000000E-02    1.00000000E+00   1.00000000E+00 
SP   1    1.000000
   2.54518072E-02    1.00000000E+00   1.00000000E+00 
D    1    1.000000
   1.29200000E+00    1.00000000E+00 

7    0
S    1    1.000000
   4.56324000E+03    1.96665000E-03 
S    1    1.000000
   6.82024000E+02    1.52306000E-02 
S    1    1.000000
   1.54973000E+02    7.61269000E-02 
S    1    1.000000
   4.44553000E+01    2.60801000E-01 
S    1    1.000000
   1.30290000E+01    6.16462000E-01 
S    1    1.000000
   1.82773000E+00    2.21006000E-01 
SP   3    1.000000
   2.09642000E+01    1.14660000E-01   4.02487000E-02 
   4.80331000E+00    9.19999000E-01   2.37594000E-01 
   1.45933000E+00   -3.03068000E-03   8.15854000E-01 
SP   1    1.000000
   4.83456000E-01    1.00000000E+00   1.00000000E+00 
SP   1    1.000000
   1.45585000E-01    1.00000000E+00   1.00000000E+00 
SP   1    1.000000
   4.38000000E-02    1.00000000E+00   1.00000000E+00 
SP   1    1.000000
   1.31927711E-02    1.00000000E+00   1.00000000E+00 
D    1    1.000000
   6.26000000E-01    1.00000000E+00 

8    0
S    1    1.000000
   8.58850000E+03    1.89515000E-03 
S    1    1.000000
   1.29723000E+03    1.43859000E-02 
S    1    1.000000
   2.99296000E+02    7.07320000E-02 
S    1    1.000000
   8.73771000E+01    2.40001000E-01 
S    1    1.000000
   2.56789000E+01    5.94797000E-01 
S    1    1.000000
   3.74004000E+00    2.80802000E-01 
SP   3    1.000000
   4.21175000E+01    1.13889000E-01   3.65114000E-02 
   9.62837000E+00    9.20811000E-01   2.37153000E-01 
   2.85332000E+00   -3.27447000E-03   8.19702000E-01 
SP   1    1.000000
   9.05661000E-01    1.00000000E+00   1.00000000E+00 
SP   1    1.000000
   2.55611000E-01    1.00000000E+00   1.00000000E+00 
SP   1    1.000000
   8.45000000E-02    1.00000000E+00   1.00000000E+00 
SP   1    1.000000
   2.54518072E-02    1.00000000E+00   1.00000000E+00 
D    1    1.000000
   1.29200000E+00    1.00000000E+00 

9    0
S    1    1.000000
   6.29348000E+03    1.96979000E-03 
S    1    1.000000
   9.49044000E+02    1.49613000E-02 
S    1    1.000000
   2.18776000E+02    7.35006000E-02 
S    1    1.000000
   6.36916000E+01    2.48937000E-01 
S    1    1.000000
   1.88282000E+01    6.02460000E-01 
S    1    1.000000
   2.72023000E+00    2.56202000E-01 
SP   3    1.000000
   3.06331000E+01    1.11906000E-01   3.83119000E-02 
   7.02614000E+00    9.21666000E-01   2.37403000E-01 
   2.11205000E+00   -2.56919000E-03   8.17592000E-01 
SP   1    1.000000
   6.84009000E-01    1.00000000E+00   1.00000000E+00 
SP   1    1.000000
   2.00878000E-01    1.00000000E+00   1.00000000E+00 
SP   1    1.000000
   6.39000000E-02    1.00000000E+00   1.00000000E+00 
SP   1    1.000000
   1.92469880E-02    1.00000000E+00   1.00000000E+00 
D    1    1.000000
   9.13000000E-01    1.00000000E+00 

10    0
S    1    1.000000
   6.29348000E+03    1.96979000E-03 
S    1    1.000000
   9.49044000E+02    1.49613000E-02 
S    1    1.000000
   2.18776000E+02    7.35006000E-02 
S    1    1.000000
   6.36916000E+01    2.48937000E-01 
S    1    1.000000
   1.88282000E+01    6.02460000E-01 
S    1    1.000000
   2.72023000E+00    2.56202000E-01 
SP   3    1.000000
   3.06331000E+01    1.11906000E-01   3.83119000E-02 
   7.02614000E+00    9.21666000E-01   2.37403000E-01 
   2.11205000E+00   -2.56919000E-03   8.17592000E-01 
SP   1    1.000000
   6.84009000E-01    1.00000000E+00   1.00000000E+00 
SP   1    1.000000
   2.00878000E-01    1.00000000E+00   1.00000000E+00 
SP   1    1.000000
   6.39000000E-02    1.00000000E+00   1.00000000E+00 
SP   1    1.000000
   1.92469880E-02    1.00000000E+00   1.00000000E+00 
D    1    1.000000
   9.13000000E-01    1.00000000E+00 

11    0
S    1    1.000000
   4.56324000E+03    1.96665000E-03 
S    1    1.000000
   6.82024000E+02    1.52306000E-02 
S    1    1.000000
   1.54973000E+02    7.61269000E-02 
S    1    1.000000
   4.44553000E+01    2.60801000E-01 
S    1    1.000000
   1.30290000E+01    6.16462000E-01 
S    1    1.000000
   1.82773000E+00    2.21006000E-01 
SP   3    1.000000
   2.09642000E+01    1.14660000E-01   4.02487000E-02 
   4.80331000E+00    9.19999000E-01   2.37594000E-01 
   1.45933000E+00   -3.03068000E-03   8.15854000E-01 
SP   1    1.000000
   4.83456000E-01    1.00000000E+00   1.00000000E+00 
SP   1    1.000000
   1.45585000E-01    1.00000000E+00   1.00000000E+00 
SP   1    1.000000
   4.38000000E-02    1.00000000E+00   1.00000000E+00 
SP   1    1.000000
   1.31927711E-02    1.00000000E+00   1.00000000E+00 
D    1    1.000000
   6.26000000E-01    1.00000000E+00 

12    0
S    3    1.000000
   3.38650000E+01    2.54938000E-02 
   5.09479000E+00    1.90373000E-01 
   1.15879000E+00    8.52161000E-01 
S    1    1.000000
   3.25840000E-01    1.00000000E+00 
S    1    1.000000
   1.02741000E-01    1.00000000E+00 
S    1    1.000000
   3.60000000E-02    1.00000000E+00 
P    1    1.000000
   7.50000000E-01    1.00000000E+00 

[MO]
Sym=X
Ene=0.000543
Spin=Alpha
Occup=1
1    -0.000229653669
2    -0.00177782068
3    -0.00886889343
4    -0.0304474721
5    -0.0719429831
6    -0.0261900669
7    -0.0962300371
8    0.000100536859
9    -0.000137311901
10    -3.31538894e-16
11    -0.000851038496
12    -0.000778027986
13    -0.000288553879
14    1.1012255e-15
15    0.000673407986
16    0.000353649764
17    0.000409845025
18    2.04825405e-15
19    0.00249127232
20    0.00027763956
21    0.00127963641
22    -7.28408729e-14
23    0.00024365674
24    -2.78216096e-05
25    0.00028097979
26    8.69794642e-14
27    -0.000372054345
28    2.8906895e-16
29    7.1452636e-05
30    6.9017838e-16
31    -0.000224166689
32    -1.42434803e-05
33    -6.23957064e-05
34    -0.000125206848
35    -0.000318763509
36    -2.49320027e-05
37    1.77481261e-06
38    -1.28521257e-15
39    -0.000106993177
40    -0.000170542728
41    0.000354002239
42    0.000643551485
43    -6.73609096e-05
44    -0.000132548802
45    -1.49501601e-17
46    -1.88107709e-05
47    -3.22634682e-05
48    -8.93084742e-05
49    -0.000276484119
50    -5.5359507e-06
51    8.06956212e-06
52    8.90919796e-16
53    -4.18450584e-06
54    -3.24285136e-05
55    -0.000161526929
56    -0.000555504639
57    -0.00130314254
58    -0.000435724883
59    -0.00177873796
60    4.42053089e-06
61    -6.76677871e-06
62    -2.32865474e-15
63    -0.000107875597
64    -1.64816234e-05
65    3.08176379e-05
66    -2.44692713e-16
67    0.000540502422
68    0.000657262901
69    -0.0003656521
70    -5.98930775e-15
71    -0.00028652058
72    0.000285024301
73    -1.07434699e-05
74    -9.84923256e-14
75    -0.000136006759
76    5.21750844e-05
77    -4.03643322e-05
78    -7.7946156e-14
79    9.11929599e-07
80    3.39689171e-16
81    -9.42507453e-06
82    1.24327458e-15
83    3.00220716e-06
84    -4.50074136e-08
85    -3.57587708e-07
86    -1.64281533e-06
87    -6.00246178e-06
88    -1.08577037e-05
89    8.42589712e-06
90    -2.91955686e-05
91    2.68170194e-06
92    -6.67406321e-07
93    -1.06978786e-15
94    -4.20497666e-05
95    -2.26409412e-05
96    1.18485837e-05
97    -2.77022499e-15
98    0.000181243265
99    8.92746676e-05
100    -5.07988088e-05
101    -4.56862463e-15
102    0.000838530334
103    0.000187605651
104    -0.000120020032
105    4.91878879e-15
106    0.000429200344
107    1.32257687e-06
108    -0.000138137087
109    3.39244507e-14
110    1.25028785e-06
111    3.14152432e-16
112    -1.01549997e-06
113    -5.48278513e-16
114    -9.91011081e-07
115    -0.000116032084
116    -0.000898298071
117    -0.00448086193
118    -0.01538439
119    -0.0363310829
120    -0.0130829569
121    -0.0486789904
122    8.23716991e-05
123    2.0372405e-05
124    3.86623695e-15
125    -0.000730734874
126    -4.30026012e-05
127    0.000669372645
128    3.11124897e-15
129    0.000387449052
130    -0.000436251503
131    -0.00091192841
132    1.41472095e-14
133    0.00208919045
134    -0.000834909196
135    -0.00133611598
136    -8.78356041e-14
137    0.00031824695
138    5.95385359e-05
139    9.50477728e-06
140    5.06256332e-14
141    -9.99311286e-05
142    3.1844275e-16
143    9.87199853e-05
144    4.36648175e-16
145    0.000359672177
146    1.44719011e-07
147    1.05476664e-06
148    5.51990961e-06
149    1.75314445e-05
150    5.54598473e-05
151    7.13185511e-05
152    4.38552693e-05
153    1.38214765e-05
154    -9.12216035e-06
155    1.64339411e-15
156    -0.000137240144
157    0.000104364896
158    8.54071453e-05
159    5.97543613e-15
160    0.000196938651
161    -0.000147570456
162    -1.42746843e-05
163    1.18370187e-15
164    0.000881101912
165    -0.000107790975
166    -2.42846073e-05
167    1.83903499e-14
168    0.00200838418
169    -0.000419568792
170    -9.79886157e-05
171    3.00296272e-15
172    -5.54362867e-05
173    -5.99072843e-16
174    1.38842387e-05
175    -5.50349309e-16
176    1.36833143e-05
177    3.68425422e-07
178    2.73364478e-06
179    1.39158199e-05
180    4.52739813e-05
181    0.000127956948
182    0.000122711784
183    0.000115889538
184    1.87711002e-05
185    -1.12906633e-05
186    -1.61702816e-15
187    -0.000124629683
188    -0.000155701668
189    7.95208446e-05
190    7.18920698e-15
191    -0.000293643074
192    0.000217379062
193    0.000227274093
194    -1.86438762e-14
195    -0.000522788702
196    0.000318373233
197    0.000408533393
198    7.21461764e-14
199    -0.000913286931
200    -0.000581324573
201    0.00020664418
202    5.52872025e-14
203    6.00763621e-05
204    -1.95445425e-16
205    1.85573274e-05
206    7.5490504e-16
207    -4.10020431e-05
208    -5.98854626e-07
209    -4.64777755e-06
210    -2.21173754e-05
211    -7.74817125e-05
212    -0.000164337229
213    1.99768508e-05
214    -0.000301090367
215    1.26084457e-05
216    -2.04557348e-08
217    -3.56742156e-15
218    -0.000208584435
219    -0.000247961057
220    0.000130265412
221    3.91311159e-15
222    -0.000271632016
223    -0.000145323025
224    -0.000204668171
225    -1.98276885e-14
226    -0.000695733947
227    -0.000363613955
228    -0.000343521314
229    6.56118162e-14
230    -0.000509238481
231    2.46301825e-05
232    -0.000269643035
233    1.31322669e-14
234    9.52238994e-05
235    -6.26709452e-17
236    3.92014512e-05
237    1.79260494e-16
238    -7.57270187e-05
239    -0.00107876905
240    -0.00835151279
241    -0.0416600559
242    -0.143038191
243    -0.337893985
244    -0.123587699
245    -0.45226341
246    0.000208415083
247    -0.0002197114
248    4.37916975e-16
249    -0.00184060544
250    8.22584867e-05
251    0.000114336044
252    6.29013838e-15
253    -0.00162185054
254    0.000644855802
255    -0.000505397387
256    -7.25523373e-15
257    -0.00535959952
258    0.00101778291
259    -0.00100410683
260    9.56381912e-14
261    -0.000277474686
262    -6.8868228e-05
263    -0.000233576574
264    -9.45803593e-14
265    -0.0001032748
266    4.18474488e-16
267    8.44591969e-05
268    3.78645463e-16
269    -8.29259831e-05
270    -0.000376036856
271    -0.000452684505
272    -0.000182940274
273    -0.000427828903
274    0.00028086346
275    -0.000153702985
276    1.08149881e-15
[5D]