[Molden Format]
[Atoms] (Angs)
  C      1    6     -0.00714236     -1.70213747     -0.00000000
  H      2    1     -2.06882847     -1.44022412      0.00000000
  H      3    1     -0.12337987     -2.77567521      0.00000000
  H      4    1      0.04651892      1.98813947     -0.00000000
  C      5    6     -1.21953563      0.40211669      0.00000000
  O      6    8     -2.25921553      1.03043814      0.00000000
  C      7    6      1.28797806      0.34644937     -0.00000000
  O      8    8      2.31273661      1.00537216     -0.00000000
  N      9    7      0.03446295      0.97739857     -0.00000000
  N     10    7     -1.17287765     -0.98229824      0.00000000
  C     11    6      1.20107039     -1.10433419     -0.00000000
  H     12    1      2.11220096     -1.67699125     -0.00000000
[GTO]
1    0
S    1    1.000000
   4.56324000E+03    1.96665000E-03 
S    1    1.000000
   6.82024000E+02    1.52306000E-02 
S    1    1.000000
   1.54973000E+02    7.61269000E-02 
S    1    1.000000
   4.44553000E+01    2.60801000E-01 
S    1    1.000000
   1.30290000E+01    6.16462000E-01 
S    1    1.000000
   1.82773000E+00    2.21006000E-01 
SP   3    1.000000
   2.09642000E+01    1.14660000E-01   4.02487000E-02 
   4.80331000E+00    9.19999000E-01   2.37594000E-01 
   1.45933000E+00   -3.03068000E-03   8.15854000E-01 
SP   1    1.000000
   4.83456000E-01    1.00000000E+00   1.00000000E+00 
SP   1    1.000000
   1.45585000E-01    1.00000000E+00   1.00000000E+00 
SP   1    1.000000
   4.38000000E-02    1.00000000E+00   1.00000000E+00 
SP   1    1.000000
   1.31927711E-02    1.00000000E+00   1.00000000E+00 
D    1    1.000000
   6.26000000E-01    1.00000000E+00 

2    0
S    3    1.000000
   3.38650000E+01    2.54938000E-02 
   5.09479000E+00    1.90373000E-01 
   1.15879000E+00    8.52161000E-01 
S    1    1.000000
   3.25840000E-01    1.00000000E+00 
S    1    1.000000
   1.02741000E-01    1.00000000E+00 
S    1    1.000000
   3.60000000E-02    1.00000000E+00 
P    1    1.000000
   7.50000000E-01    1.00000000E+00 

3    0
S    3    1.000000
   3.38650000E+01    2.54938000E-02 
   5.09479000E+00    1.90373000E-01 
   1.15879000E+00    8.52161000E-01 
S    1    1.000000
   3.25840000E-01    1.00000000E+00 
S    1    1.000000
   1.02741000E-01    1.00000000E+00 
S    1    1.000000
   3.60000000E-02    1.00000000E+00 
P    1    1.000000
   7.50000000E-01    1.00000000E+00 

4    0
S    3    1.000000
   3.38650000E+01    2.54938000E-02 
   5.09479000E+00    1.90373000E-01 
   1.15879000E+00    8.52161000E-01 
S    1    1.000000
   3.25840000E-01    1.00000000E+00 
S    1    1.000000
   1.02741000E-01    1.00000000E+00 
S    1    1.000000
   3.60000000E-02    1.00000000E+00 
P    1    1.000000
   7.50000000E-01    1.00000000E+00 

5    0
S    1    1.000000
   4.56324000E+03    1.96665000E-03 
S    1    1.000000
   6.82024000E+02    1.52306000E-02 
S    1    1.000000
   1.54973000E+02    7.61269000E-02 
S    1    1.000000
   4.44553000E+01    2.60801000E-01 
S    1    1.000000
   1.30290000E+01    6.16462000E-01 
S    1    1.000000
   1.82773000E+00    2.21006000E-01 
SP   3    1.000000
   2.09642000E+01    1.14660000E-01   4.02487000E-02 
   4.80331000E+00    9.19999000E-01   2.37594000E-01 
   1.45933000E+00   -3.03068000E-03   8.15854000E-01 
SP   1    1.000000
   4.83456000E-01    1.00000000E+00   1.00000000E+00 
SP   1    1.000000
   1.45585000E-01    1.00000000E+00   1.00000000E+00 
SP   1    1.000000
   4.38000000E-02    1.00000000E+00   1.00000000E+00 
SP   1    1.000000
   1.31927711E-02    1.00000000E+00   1.00000000E+00 
D    1    1.000000
   6.26000000E-01    1.00000000E+00 

6    0
S    1    1.000000
   8.58850000E+03    1.89515000E-03 
S    1    1.000000
   1.29723000E+03    1.43859000E-02 
S    1    1.000000
   2.99296000E+02    7.07320000E-02 
S    1    1.000000
   8.73771000E+01    2.40001000E-01 
S    1    1.000000
   2.56789000E+01    5.94797000E-01 
S    1    1.000000
   3.74004000E+00    2.80802000E-01 
SP   3    1.000000
   4.21175000E+01    1.13889000E-01   3.65114000E-02 
   9.62837000E+00    9.20811000E-01   2.37153000E-01 
   2.85332000E+00   -3.27447000E-03   8.19702000E-01 
SP   1    1.000000
   9.05661000E-01    1.00000000E+00   1.00000000E+00 
SP   1    1.000000
   2.55611000E-01    1.00000000E+00   1.00000000E+00 
SP   1    1.000000
   8.45000000E-02    1.00000000E+00   1.00000000E+00 
SP   1    1.000000
   2.54518072E-02    1.00000000E+00   1.00000000E+00 
D    1    1.000000
   1.29200000E+00    1.00000000E+00 

7    0
S    1    1.000000
   4.56324000E+03    1.96665000E-03 
S    1    1.000000
   6.82024000E+02    1.52306000E-02 
S    1    1.000000
   1.54973000E+02    7.61269000E-02 
S    1    1.000000
   4.44553000E+01    2.60801000E-01 
S    1    1.000000
   1.30290000E+01    6.16462000E-01 
S    1    1.000000
   1.82773000E+00    2.21006000E-01 
SP   3    1.000000
   2.09642000E+01    1.14660000E-01   4.02487000E-02 
   4.80331000E+00    9.19999000E-01   2.37594000E-01 
   1.45933000E+00   -3.03068000E-03   8.15854000E-01 
SP   1    1.000000
   4.83456000E-01    1.00000000E+00   1.00000000E+00 
SP   1    1.000000
   1.45585000E-01    1.00000000E+00   1.00000000E+00 
SP   1    1.000000
   4.38000000E-02    1.00000000E+00   1.00000000E+00 
SP   1    1.000000
   1.31927711E-02    1.00000000E+00   1.00000000E+00 
D    1    1.000000
   6.26000000E-01    1.00000000E+00 

8    0
S    1    1.000000
   8.58850000E+03    1.89515000E-03 
S    1    1.000000
   1.29723000E+03    1.43859000E-02 
S    1    1.000000
   2.99296000E+02    7.07320000E-02 
S    1    1.000000
   8.73771000E+01    2.40001000E-01 
S    1    1.000000
   2.56789000E+01    5.94797000E-01 
S    1    1.000000
   3.74004000E+00    2.80802000E-01 
SP   3    1.000000
   4.21175000E+01    1.13889000E-01   3.65114000E-02 
   9.62837000E+00    9.20811000E-01   2.37153000E-01 
   2.85332000E+00   -3.27447000E-03   8.19702000E-01 
SP   1    1.000000
   9.05661000E-01    1.00000000E+00   1.00000000E+00 
SP   1    1.000000
   2.55611000E-01    1.00000000E+00   1.00000000E+00 
SP   1    1.000000
   8.45000000E-02    1.00000000E+00   1.00000000E+00 
SP   1    1.000000
   2.54518072E-02    1.00000000E+00   1.00000000E+00 
D    1    1.000000
   1.29200000E+00    1.00000000E+00 

9    0
S    1    1.000000
   6.29348000E+03    1.96979000E-03 
S    1    1.000000
   9.49044000E+02    1.49613000E-02 
S    1    1.000000
   2.18776000E+02    7.35006000E-02 
S    1    1.000000
   6.36916000E+01    2.48937000E-01 
S    1    1.000000
   1.88282000E+01    6.02460000E-01 
S    1    1.000000
   2.72023000E+00    2.56202000E-01 
SP   3    1.000000
   3.06331000E+01    1.11906000E-01   3.83119000E-02 
   7.02614000E+00    9.21666000E-01   2.37403000E-01 
   2.11205000E+00   -2.56919000E-03   8.17592000E-01 
SP   1    1.000000
   6.84009000E-01    1.00000000E+00   1.00000000E+00 
SP   1    1.000000
   2.00878000E-01    1.00000000E+00   1.00000000E+00 
SP   1    1.000000
   6.39000000E-02    1.00000000E+00   1.00000000E+00 
SP   1    1.000000
   1.92469880E-02    1.00000000E+00   1.00000000E+00 
D    1    1.000000
   9.13000000E-01    1.00000000E+00 

10    0
S    1    1.000000
   6.29348000E+03    1.96979000E-03 
S    1    1.000000
   9.49044000E+02    1.49613000E-02 
S    1    1.000000
   2.18776000E+02    7.35006000E-02 
S    1    1.000000
   6.36916000E+01    2.48937000E-01 
S    1    1.000000
   1.88282000E+01    6.02460000E-01 
S    1    1.000000
   2.72023000E+00    2.56202000E-01 
SP   3    1.000000
   3.06331000E+01    1.11906000E-01   3.83119000E-02 
   7.02614000E+00    9.21666000E-01   2.37403000E-01 
   2.11205000E+00   -2.56919000E-03   8.17592000E-01 
SP   1    1.000000
   6.84009000E-01    1.00000000E+00   1.00000000E+00 
SP   1    1.000000
   2.00878000E-01    1.00000000E+00   1.00000000E+00 
SP   1    1.000000
   6.39000000E-02    1.00000000E+00   1.00000000E+00 
SP   1    1.000000
   1.92469880E-02    1.00000000E+00   1.00000000E+00 
D    1    1.000000
   9.13000000E-01    1.00000000E+00 

11    0
S    1    1.000000
   4.56324000E+03    1.96665000E-03 
S    1    1.000000
   6.82024000E+02    1.52306000E-02 
S    1    1.000000
   1.54973000E+02    7.61269000E-02 
S    1    1.000000
   4.44553000E+01    2.60801000E-01 
S    1    1.000000
   1.30290000E+01    6.16462000E-01 
S    1    1.000000
   1.82773000E+00    2.21006000E-01 
SP   3    1.000000
   2.09642000E+01    1.14660000E-01   4.02487000E-02 
   4.80331000E+00    9.19999000E-01   2.37594000E-01 
   1.45933000E+00   -3.03068000E-03   8.15854000E-01 
SP   1    1.000000
   4.83456000E-01    1.00000000E+00   1.00000000E+00 
SP   1    1.000000
   1.45585000E-01    1.00000000E+00   1.00000000E+00 
SP   1    1.000000
   4.38000000E-02    1.00000000E+00   1.00000000E+00 
SP   1    1.000000
   1.31927711E-02    1.00000000E+00   1.00000000E+00 
D    1    1.000000
   6.26000000E-01    1.00000000E+00 

12    0
S    3    1.000000
   3.38650000E+01    2.54938000E-02 
   5.09479000E+00    1.90373000E-01 
   1.15879000E+00    8.52161000E-01 
S    1    1.000000
   3.25840000E-01    1.00000000E+00 
S    1    1.000000
   1.02741000E-01    1.00000000E+00 
S    1    1.000000
   3.60000000E-02    1.00000000E+00 
P    1    1.000000
   7.50000000E-01    1.00000000E+00 

[MO]
Sym=X
Ene=0.000195
Spin=Alpha
Occup=1
1    -0.000297172067
2    -0.00230066484
3    -0.0114762537
4    -0.0394036568
5    -0.0930656442
6    -0.0339108554
7    -0.124714911
8    0.000368582992
9    -3.62676821e-05
10    -4.13322046e-16
11    -0.00032737618
12    -0.000100320347
13    6.43313545e-05
14    -4.47237264e-16
15    -0.000682959117
16    -2.82592939e-06
17    -0.00054723183
18    -1.8216581e-15
19    -0.00101914122
20    -7.62611964e-06
21    -0.000677058878
22    2.20643719e-14
23    -0.00017292786
24    -2.93300953e-05
25    3.5581793e-05
26    1.17396479e-14
27    -5.326082e-06
28    -7.38885759e-16
29    4.80060228e-05
30    -7.89684656e-16
31    6.0969995e-05
32    -2.27067266e-05
33    3.90995863e-05
34    -0.00014307983
35    -0.000120528713
36    -1.83818585e-05
37    -9.38392658e-06
38    1.02969085e-15
39    -9.20388428e-05
40    -0.000166356393
41    -0.00021277225
42    -0.000602419281
43    4.73465142e-06
44    -7.01241738e-05
45    -1.09162294e-16
46    -3.3931562e-05
47    -2.21871709e-05
48    -0.000124222824
49    0.000247938557
50    1.27130591e-05
51    4.41009747e-05
52    -1.17369312e-15
53    -0.000344959069
54    -0.00267051181
55    -0.0133219876
56    -0.0457375089
57    -0.108051273
58    -0.0392728203
59    -0.144732502
60    -0.000186566832
61    0.000137217924
62    7.16156649e-16
63    -0.00055980259
64    0.000187452343
65    -0.000136212858
66    -9.59595437e-17
67    -0.000747885162
68    0.000209234536
69    -0.000102694012
70    1.28556707e-15
71    -0.000472478746
72    0.000317070977
73    -0.000134450963
74    3.56492394e-14
75    0.000507093485
76    7.35365542e-05
77    3.09053473e-05
78    2.55427689e-14
79    8.85116195e-05
80    -5.71535757e-16
81    7.67512221e-05
82    -1.08077677e-15
83    -7.09211762e-05
84    9.76662167e-07
85    7.38654254e-06
86    3.65878914e-05
87    0.000123287148
88    0.000315533878
89    0.000197132688
90    0.000442427987
91    -6.37820167e-05
92    3.81776253e-05
93    2.59065897e-16
94    -0.000218887478
95    -0.000183633094
96    0.000105867989
97    1.07599018e-15
98    0.000255295299
99    0.000160475073
100    -0.000105482528
101    2.77395072e-15
102    0.000583074813
103    8.10329105e-05
104    1.63534955e-06
105    -2.42859917e-15
106    0.000754887384
107    0.00010356682
108    -0.000163092088
109    -1.20643033e-15
110    7.10124869e-05
111    -4.71705145e-16
112    3.53672194e-05
113    -2.09937e-17
114    -4.14271433e-05
115    -0.000878513676
116    -0.0068010116
117    -0.033927364
118    -0.116479066
119    -0.275183794
120    -0.100153885
121    -0.368570853
122    0.000575444231
123    -0.000431406119
124    -4.32453029e-15
125    -0.00107462872
126    -0.000629113563
127    -6.6577847e-05
128    -7.17950299e-15
129    -0.00156211652
130    0.00039482051
131    8.02206866e-05
132    -8.8403611e-15
133    1.02363541e-05
134    0.000299751547
135    -0.00122990189
136    1.72464767e-14
137    -0.000128976817
138    0.000193440444
139    2.38765444e-05
140    -1.40360434e-14
141    -0.000244937246
142    -3.40490929e-16
143    0.00016874745
144    -2.94178794e-16
145    -0.000118868844
146    1.62482418e-06
147    1.22907234e-05
148    6.09168579e-05
149    0.000205277103
150    0.000524302179
151    0.000339007298
152    0.000760699279
153    0.000163274954
154    0.000117132348
155    -3.1017564e-15
156    -0.000477538394
157    0.000431424131
158    0.000281370401
159    -3.82507178e-15
160    0.000132687785
161    -0.000144226638
162    -0.000107375176
163    -7.35884384e-15
164    0.000140605123
165    4.32876519e-05
166    0.000140464521
167    -9.86077214e-15
168    0.000946999492
169    -0.000318487614
170    -2.67816761e-05
171    7.93357998e-15
172    -0.000190683781
173    6.26523844e-16
174    9.00275406e-05
175    8.61335145e-16
176    -0.000101561362
177    1.98901017e-06
178    1.49665269e-05
179    7.47334424e-05
180    0.000248822195
181    0.000648750326
182    0.000487529577
183    0.000784168063
184    -2.38158875e-05
185    4.83817037e-05
186    -6.59038213e-16
187    -0.000610777681
188    -0.000313411787
189    0.000342218456
190    -6.03708257e-15
191    0.000105495402
192    -7.75668853e-06
193    2.3263766e-05
194    3.3322154e-15
195    0.00138654491
196    0.000492720088
197    -6.08553635e-05
198    -2.64704133e-14
199    -0.000220104672
200    -0.000138896925
201    -0.000136033785
202    -1.42960407e-14
203    0.000123875312
204    2.52799595e-16
205    0.000127315301
206    -9.25709938e-16
207    -0.000229574623
208    1.59893617e-06
209    1.20764513e-05
210    5.99442206e-05
211    0.000200817482
212    0.000511693839
213    0.000339790736
214    0.000646115682
215    -2.66411589e-05
216    -9.22072421e-06
217    1.87170352e-15
218    -0.000373404457
219    -0.000164308337
220    -0.000126478519
221    1.00874795e-16
222    0.000191442882
223    7.69880306e-05
224    8.78329187e-05
225    6.70865323e-15
226    0.00084713433
227    -7.94283843e-05
228    3.33856538e-05
229    -1.54140246e-14
230    -0.000197025556
231    0.000168679532
232    -0.000285259975
233    -2.23503338e-14
234    9.1642024e-05
235    -1.92021413e-16
236    6.41633971e-05
237    -3.56984693e-16
238    7.04829179e-05
239    0.00050210429
240    0.00388722665
241    0.0193902748
242    0.0665783437
243    0.157258104
244    0.0575328286
245    0.210589251
246    -4.38225566e-05
247    5.50144615e-05
248    -1.98987365e-15
249    0.000527286947
250    7.65958658e-06
251    -0.000431616283
252    -4.68551059e-15
253    0.00117694525
254    -0.00052309364
255    0.000543814357
256    -3.63701754e-15
257    -0.00129643355
258    -0.000524144274
259    -0.000326871094
260    -2.47919197e-14
261    -0.000287535188
262    -1.2654796e-05
263    -0.000146745374
264    5.91819614e-15
265    -4.87691005e-05
266    -1.18910258e-15
267    -3.99866686e-05
268    7.0365395e-17
269    0.000221700861
270    0.000143712352
271    0.000110557083
272    0.00036429036
273    0.000111056785
274    -6.50667577e-05
275    1.43451529e-05
276    -9.30056629e-16
[5D]