[Molden Format]
[Atoms] (Angs)
  C      1    6     -0.00714236     -1.70213747     -0.00000000
  H      2    1     -2.06882847     -1.44022412      0.00000000
  H      3    1     -0.12337987     -2.77567521      0.00000000
  H      4    1      0.04651892      1.98813947     -0.00000000
  C      5    6     -1.21953563      0.40211669      0.00000000
  O      6    8     -2.25921553      1.03043814      0.00000000
  C      7    6      1.28797806      0.34644937     -0.00000000
  O      8    8      2.31273661      1.00537216     -0.00000000
  N      9    7      0.03446295      0.97739857     -0.00000000
  N     10    7     -1.17287765     -0.98229824      0.00000000
  C     11    6      1.20107039     -1.10433419     -0.00000000
  H     12    1      2.11220096     -1.67699125     -0.00000000
[GTO]
1    0
S    1    1.000000
   4.56324000E+03    1.96665000E-03 
S    1    1.000000
   6.82024000E+02    1.52306000E-02 
S    1    1.000000
   1.54973000E+02    7.61269000E-02 
S    1    1.000000
   4.44553000E+01    2.60801000E-01 
S    1    1.000000
   1.30290000E+01    6.16462000E-01 
S    1    1.000000
   1.82773000E+00    2.21006000E-01 
SP   3    1.000000
   2.09642000E+01    1.14660000E-01   4.02487000E-02 
   4.80331000E+00    9.19999000E-01   2.37594000E-01 
   1.45933000E+00   -3.03068000E-03   8.15854000E-01 
SP   1    1.000000
   4.83456000E-01    1.00000000E+00   1.00000000E+00 
SP   1    1.000000
   1.45585000E-01    1.00000000E+00   1.00000000E+00 
SP   1    1.000000
   4.38000000E-02    1.00000000E+00   1.00000000E+00 
SP   1    1.000000
   1.31927711E-02    1.00000000E+00   1.00000000E+00 
D    1    1.000000
   6.26000000E-01    1.00000000E+00 

2    0
S    3    1.000000
   3.38650000E+01    2.54938000E-02 
   5.09479000E+00    1.90373000E-01 
   1.15879000E+00    8.52161000E-01 
S    1    1.000000
   3.25840000E-01    1.00000000E+00 
S    1    1.000000
   1.02741000E-01    1.00000000E+00 
S    1    1.000000
   3.60000000E-02    1.00000000E+00 
P    1    1.000000
   7.50000000E-01    1.00000000E+00 

3    0
S    3    1.000000
   3.38650000E+01    2.54938000E-02 
   5.09479000E+00    1.90373000E-01 
   1.15879000E+00    8.52161000E-01 
S    1    1.000000
   3.25840000E-01    1.00000000E+00 
S    1    1.000000
   1.02741000E-01    1.00000000E+00 
S    1    1.000000
   3.60000000E-02    1.00000000E+00 
P    1    1.000000
   7.50000000E-01    1.00000000E+00 

4    0
S    3    1.000000
   3.38650000E+01    2.54938000E-02 
   5.09479000E+00    1.90373000E-01 
   1.15879000E+00    8.52161000E-01 
S    1    1.000000
   3.25840000E-01    1.00000000E+00 
S    1    1.000000
   1.02741000E-01    1.00000000E+00 
S    1    1.000000
   3.60000000E-02    1.00000000E+00 
P    1    1.000000
   7.50000000E-01    1.00000000E+00 

5    0
S    1    1.000000
   4.56324000E+03    1.96665000E-03 
S    1    1.000000
   6.82024000E+02    1.52306000E-02 
S    1    1.000000
   1.54973000E+02    7.61269000E-02 
S    1    1.000000
   4.44553000E+01    2.60801000E-01 
S    1    1.000000
   1.30290000E+01    6.16462000E-01 
S    1    1.000000
   1.82773000E+00    2.21006000E-01 
SP   3    1.000000
   2.09642000E+01    1.14660000E-01   4.02487000E-02 
   4.80331000E+00    9.19999000E-01   2.37594000E-01 
   1.45933000E+00   -3.03068000E-03   8.15854000E-01 
SP   1    1.000000
   4.83456000E-01    1.00000000E+00   1.00000000E+00 
SP   1    1.000000
   1.45585000E-01    1.00000000E+00   1.00000000E+00 
SP   1    1.000000
   4.38000000E-02    1.00000000E+00   1.00000000E+00 
SP   1    1.000000
   1.31927711E-02    1.00000000E+00   1.00000000E+00 
D    1    1.000000
   6.26000000E-01    1.00000000E+00 

6    0
S    1    1.000000
   8.58850000E+03    1.89515000E-03 
S    1    1.000000
   1.29723000E+03    1.43859000E-02 
S    1    1.000000
   2.99296000E+02    7.07320000E-02 
S    1    1.000000
   8.73771000E+01    2.40001000E-01 
S    1    1.000000
   2.56789000E+01    5.94797000E-01 
S    1    1.000000
   3.74004000E+00    2.80802000E-01 
SP   3    1.000000
   4.21175000E+01    1.13889000E-01   3.65114000E-02 
   9.62837000E+00    9.20811000E-01   2.37153000E-01 
   2.85332000E+00   -3.27447000E-03   8.19702000E-01 
SP   1    1.000000
   9.05661000E-01    1.00000000E+00   1.00000000E+00 
SP   1    1.000000
   2.55611000E-01    1.00000000E+00   1.00000000E+00 
SP   1    1.000000
   8.45000000E-02    1.00000000E+00   1.00000000E+00 
SP   1    1.000000
   2.54518072E-02    1.00000000E+00   1.00000000E+00 
D    1    1.000000
   1.29200000E+00    1.00000000E+00 

7    0
S    1    1.000000
   4.56324000E+03    1.96665000E-03 
S    1    1.000000
   6.82024000E+02    1.52306000E-02 
S    1    1.000000
   1.54973000E+02    7.61269000E-02 
S    1    1.000000
   4.44553000E+01    2.60801000E-01 
S    1    1.000000
   1.30290000E+01    6.16462000E-01 
S    1    1.000000
   1.82773000E+00    2.21006000E-01 
SP   3    1.000000
   2.09642000E+01    1.14660000E-01   4.02487000E-02 
   4.80331000E+00    9.19999000E-01   2.37594000E-01 
   1.45933000E+00   -3.03068000E-03   8.15854000E-01 
SP   1    1.000000
   4.83456000E-01    1.00000000E+00   1.00000000E+00 
SP   1    1.000000
   1.45585000E-01    1.00000000E+00   1.00000000E+00 
SP   1    1.000000
   4.38000000E-02    1.00000000E+00   1.00000000E+00 
SP   1    1.000000
   1.31927711E-02    1.00000000E+00   1.00000000E+00 
D    1    1.000000
   6.26000000E-01    1.00000000E+00 

8    0
S    1    1.000000
   8.58850000E+03    1.89515000E-03 
S    1    1.000000
   1.29723000E+03    1.43859000E-02 
S    1    1.000000
   2.99296000E+02    7.07320000E-02 
S    1    1.000000
   8.73771000E+01    2.40001000E-01 
S    1    1.000000
   2.56789000E+01    5.94797000E-01 
S    1    1.000000
   3.74004000E+00    2.80802000E-01 
SP   3    1.000000
   4.21175000E+01    1.13889000E-01   3.65114000E-02 
   9.62837000E+00    9.20811000E-01   2.37153000E-01 
   2.85332000E+00   -3.27447000E-03   8.19702000E-01 
SP   1    1.000000
   9.05661000E-01    1.00000000E+00   1.00000000E+00 
SP   1    1.000000
   2.55611000E-01    1.00000000E+00   1.00000000E+00 
SP   1    1.000000
   8.45000000E-02    1.00000000E+00   1.00000000E+00 
SP   1    1.000000
   2.54518072E-02    1.00000000E+00   1.00000000E+00 
D    1    1.000000
   1.29200000E+00    1.00000000E+00 

9    0
S    1    1.000000
   6.29348000E+03    1.96979000E-03 
S    1    1.000000
   9.49044000E+02    1.49613000E-02 
S    1    1.000000
   2.18776000E+02    7.35006000E-02 
S    1    1.000000
   6.36916000E+01    2.48937000E-01 
S    1    1.000000
   1.88282000E+01    6.02460000E-01 
S    1    1.000000
   2.72023000E+00    2.56202000E-01 
SP   3    1.000000
   3.06331000E+01    1.11906000E-01   3.83119000E-02 
   7.02614000E+00    9.21666000E-01   2.37403000E-01 
   2.11205000E+00   -2.56919000E-03   8.17592000E-01 
SP   1    1.000000
   6.84009000E-01    1.00000000E+00   1.00000000E+00 
SP   1    1.000000
   2.00878000E-01    1.00000000E+00   1.00000000E+00 
SP   1    1.000000
   6.39000000E-02    1.00000000E+00   1.00000000E+00 
SP   1    1.000000
   1.92469880E-02    1.00000000E+00   1.00000000E+00 
D    1    1.000000
   9.13000000E-01    1.00000000E+00 

10    0
S    1    1.000000
   6.29348000E+03    1.96979000E-03 
S    1    1.000000
   9.49044000E+02    1.49613000E-02 
S    1    1.000000
   2.18776000E+02    7.35006000E-02 
S    1    1.000000
   6.36916000E+01    2.48937000E-01 
S    1    1.000000
   1.88282000E+01    6.02460000E-01 
S    1    1.000000
   2.72023000E+00    2.56202000E-01 
SP   3    1.000000
   3.06331000E+01    1.11906000E-01   3.83119000E-02 
   7.02614000E+00    9.21666000E-01   2.37403000E-01 
   2.11205000E+00   -2.56919000E-03   8.17592000E-01 
SP   1    1.000000
   6.84009000E-01    1.00000000E+00   1.00000000E+00 
SP   1    1.000000
   2.00878000E-01    1.00000000E+00   1.00000000E+00 
SP   1    1.000000
   6.39000000E-02    1.00000000E+00   1.00000000E+00 
SP   1    1.000000
   1.92469880E-02    1.00000000E+00   1.00000000E+00 
D    1    1.000000
   9.13000000E-01    1.00000000E+00 

11    0
S    1    1.000000
   4.56324000E+03    1.96665000E-03 
S    1    1.000000
   6.82024000E+02    1.52306000E-02 
S    1    1.000000
   1.54973000E+02    7.61269000E-02 
S    1    1.000000
   4.44553000E+01    2.60801000E-01 
S    1    1.000000
   1.30290000E+01    6.16462000E-01 
S    1    1.000000
   1.82773000E+00    2.21006000E-01 
SP   3    1.000000
   2.09642000E+01    1.14660000E-01   4.02487000E-02 
   4.80331000E+00    9.19999000E-01   2.37594000E-01 
   1.45933000E+00   -3.03068000E-03   8.15854000E-01 
SP   1    1.000000
   4.83456000E-01    1.00000000E+00   1.00000000E+00 
SP   1    1.000000
   1.45585000E-01    1.00000000E+00   1.00000000E+00 
SP   1    1.000000
   4.38000000E-02    1.00000000E+00   1.00000000E+00 
SP   1    1.000000
   1.31927711E-02    1.00000000E+00   1.00000000E+00 
D    1    1.000000
   6.26000000E-01    1.00000000E+00 

12    0
S    3    1.000000
   3.38650000E+01    2.54938000E-02 
   5.09479000E+00    1.90373000E-01 
   1.15879000E+00    8.52161000E-01 
S    1    1.000000
   3.25840000E-01    1.00000000E+00 
S    1    1.000000
   1.02741000E-01    1.00000000E+00 
S    1    1.000000
   3.60000000E-02    1.00000000E+00 
P    1    1.000000
   7.50000000E-01    1.00000000E+00 

[MO]
Sym=X
Ene=7.1e-05
Spin=Alpha
Occup=1
1    -0.00039925608
2    -0.00309086544
3    -0.0154187377
4    -0.0529367357
5    -0.125060322
6    -0.0456481107
7    -0.167447097
8    0.00039529715
9    -0.000120265313
10    1.06879203e-15
11    -0.000456838216
12    -0.000221837576
13    0.000139584345
14    -3.00737458e-15
15    -0.00066316741
16    -7.63751133e-06
17    -0.00025026696
18    7.57487171e-15
19    -0.00238755802
20    0.000186904126
21    -0.000980461646
22    -5.39724857e-14
23    3.5337798e-05
24    7.71609235e-05
25    -0.000212459848
26    -3.56467775e-14
27    -3.40391871e-05
28    8.10475026e-16
29    8.2792131e-05
30    -6.30174666e-16
31    -3.55113735e-06
32    -3.01422676e-06
33    -5.07644088e-05
34    0.000189834525
35    0.000353667071
36    -1.72925309e-05
37    -1.18506156e-05
38    5.80707294e-16
39    -0.00013562137
40    -7.92114755e-05
41    -0.000153188902
42    -0.000185592907
43    5.68631551e-06
44    -8.81760422e-05
45    2.75401724e-16
46    2.62446416e-05
47    6.82348424e-05
48    4.5290599e-05
49    -0.000282177425
50    -1.24244735e-05
51    -3.69969439e-05
52    -1.79478514e-17
53    -7.99727326e-05
54    -0.000619089115
55    -0.00308851735
56    -0.010602988
57    -0.0250548606
58    -0.00913244335
59    -0.0335374506
60    -6.11935858e-05
61    2.37257021e-05
62    -2.95324326e-16
63    -8.26493576e-05
64    9.50628186e-05
65    -3.11894021e-06
66    3.22253999e-15
67    -0.000273548865
68    -0.000280888403
69    0.000103444564
70    -1.89688193e-15
71    0.000328822387
72    2.94125675e-05
73    -0.00049095703
74    -4.72871433e-14
75    -0.000562812959
76    -0.000239048455
77    -6.00251997e-05
78    -2.87096826e-14
79    3.1901054e-05
80    -1.01651203e-16
81    1.87023883e-05
82    5.72521152e-16
83    4.52490992e-05
84    1.37359219e-08
85    1.01005022e-07
86    5.33546306e-07
87    1.70731923e-06
88    4.95610704e-06
89    7.85261767e-06
90    1.01529617e-05
91    -1.49912147e-05
92    9.41708964e-06
93    -2.78316867e-16
94    -3.23022327e-05
95    -2.86354781e-05
96    3.063487e-05
97    3.05360219e-16
98    -4.41021721e-05
99    -6.66007507e-06
100    2.05133138e-05
101    -2.75481385e-15
102    -0.000396578163
103    -0.000191995424
104    2.58092248e-05
105    8.58459174e-15
106    0.000344443848
107    0.000160145405
108    0.000177456109
109    -4.88021319e-15
110    2.27349863e-05
111    7.1218532e-16
112    9.51417763e-06
113    2.98073476e-18
114    -2.29955763e-06
115    0.00102767817
116    0.00795574162
117    0.0396879482
118    0.136255345
119    0.321909605
120    0.117127419
121    0.431118117
122    -0.00068976915
123    0.00043973981
124    -2.14130241e-18
125    0.0015161388
126    0.000757826809
127    -0.000235991203
128    1.1111861e-15
129    0.0012807874
130    -0.000183062977
131    0.000495053506
132    1.0550052e-15
133    -0.00252332116
134    0.000148031829
135    0.00230377294
136    -6.47122017e-14
137    -0.000323171521
138    -0.000339998725
139    7.67307212e-05
140    4.97850358e-15
141    0.000303078228
142    1.92255029e-16
143    -0.000239934378
144    -3.79849608e-16
145    -5.99385161e-05
146    -8.84139133e-08
147    -5.73717573e-07
148    -3.69866624e-06
149    -9.73704807e-06
150    -4.78799331e-05
151    -0.000144657623
152    -5.88837403e-05
153    -0.000190162153
154    -0.000126356208
155    2.51583004e-16
156    0.000602509336
157    -0.000516770954
158    -0.000340472591
159    1.73730738e-16
160    -0.000291655074
161    0.000217967592
162    0.000102832983
163    -3.63729794e-15
164    -0.000323894472
165    -6.93164451e-05
166    -0.000173573503
167    1.42060676e-14
168    -0.00220358659
169    0.000572006359
170    7.77939611e-05
171    -9.1246349e-15
172    0.000238694076
173    7.8120031e-17
174    -0.000105885035
175    8.51862159e-17
176    0.000105526378
177    -4.51175787e-07
178    -3.28482352e-06
179    -1.72679973e-05
180    -5.45069363e-05
181    -0.000171573794
182    -0.000245233751
183    -0.000134095482
184    4.47900651e-05
185    -3.43825507e-05
186    -8.02143254e-16
187    0.000466900702
188    0.000697801432
189    -0.000275892299
190    5.32513374e-15
191    6.66606857e-05
192    -0.000162714771
193    -0.000170818951
194    -1.08926874e-14
195    -0.00110694973
196    -0.00105755608
197    0.000134042051
198    4.49254696e-14
199    0.000191739402
200    0.000766769828
201    0.000111622657
202    3.23344294e-14
203    -0.000270356965
204    -4.57644498e-17
205    -0.000106887846
206    4.82481141e-17
207    0.000184290481
208    -1.96792216e-06
209    -1.50161726e-05
210    -7.32898429e-05
211    -0.000249621834
212    -0.000594078072
213    -0.000197024737
214    -0.000840695791
215    -3.39928044e-05
216    7.98894616e-06
217    -9.92085461e-16
218    -0.000220037002
219    -0.000227249345
220    0.000113708539
221    4.12898449e-15
222    5.47232388e-05
223    -9.47097758e-06
224    3.20193153e-05
225    -8.80407035e-15
226    0.000690917076
227    0.000612232809
228    -2.2447758e-05
229    3.12165728e-14
230    0.000928622042
231    0.00010767252
232    0.000302703288
233    5.33843884e-14
234    0.000109199258
235    5.29488555e-16
236    4.94502227e-05
237    -1.26432374e-16
238    -4.29305368e-05
239    9.51870712e-05
240    0.00073692808
241    0.00367587841
242    0.0126213369
243    0.0298065185
244    0.0108422825
245    0.0399182719
246    3.67333163e-05
247    0.00012891804
248    -2.05959771e-16
249    0.000359899084
250    0.000156434644
251    0.000477638283
252    5.3963452e-16
253    0.000252122912
254    -0.00022599272
255    -0.000110220853
256    -5.22214218e-15
257    0.00594391879
258    -0.000385685369
259    0.00167849669
260    5.74307184e-14
261    0.000683672358
262    0.000154393966
263    0.000398262776
264    1.47409941e-14
265    -2.24745422e-05
266    2.12739853e-16
267    -4.69573794e-05
268    6.33967623e-17
269    -0.000309614583
270    4.54240215e-05
271    0.000110564954
272    -1.34781186e-05
273    0.000397166628
274    -2.45097339e-05
275    8.45386556e-05
276    -1.47902468e-16
[5D]