[Molden Format]
[Atoms] (Angs)
  C      1    6     -0.00714236     -1.70213747     -0.00000000
  H      2    1     -2.06882847     -1.44022412      0.00000000
  H      3    1     -0.12337987     -2.77567521      0.00000000
  H      4    1      0.04651892      1.98813947     -0.00000000
  C      5    6     -1.21953563      0.40211669      0.00000000
  O      6    8     -2.25921553      1.03043814      0.00000000
  C      7    6      1.28797806      0.34644937     -0.00000000
  O      8    8      2.31273661      1.00537216     -0.00000000
  N      9    7      0.03446295      0.97739857     -0.00000000
  N     10    7     -1.17287765     -0.98229824      0.00000000
  C     11    6      1.20107039     -1.10433419     -0.00000000
  H     12    1      2.11220096     -1.67699125     -0.00000000
[GTO]
1    0
S    1    1.000000
   4.56324000E+03    1.96665000E-03 
S    1    1.000000
   6.82024000E+02    1.52306000E-02 
S    1    1.000000
   1.54973000E+02    7.61269000E-02 
S    1    1.000000
   4.44553000E+01    2.60801000E-01 
S    1    1.000000
   1.30290000E+01    6.16462000E-01 
S    1    1.000000
   1.82773000E+00    2.21006000E-01 
SP   3    1.000000
   2.09642000E+01    1.14660000E-01   4.02487000E-02 
   4.80331000E+00    9.19999000E-01   2.37594000E-01 
   1.45933000E+00   -3.03068000E-03   8.15854000E-01 
SP   1    1.000000
   4.83456000E-01    1.00000000E+00   1.00000000E+00 
SP   1    1.000000
   1.45585000E-01    1.00000000E+00   1.00000000E+00 
SP   1    1.000000
   4.38000000E-02    1.00000000E+00   1.00000000E+00 
SP   1    1.000000
   1.31927711E-02    1.00000000E+00   1.00000000E+00 
D    1    1.000000
   6.26000000E-01    1.00000000E+00 

2    0
S    3    1.000000
   3.38650000E+01    2.54938000E-02 
   5.09479000E+00    1.90373000E-01 
   1.15879000E+00    8.52161000E-01 
S    1    1.000000
   3.25840000E-01    1.00000000E+00 
S    1    1.000000
   1.02741000E-01    1.00000000E+00 
S    1    1.000000
   3.60000000E-02    1.00000000E+00 
P    1    1.000000
   7.50000000E-01    1.00000000E+00 

3    0
S    3    1.000000
   3.38650000E+01    2.54938000E-02 
   5.09479000E+00    1.90373000E-01 
   1.15879000E+00    8.52161000E-01 
S    1    1.000000
   3.25840000E-01    1.00000000E+00 
S    1    1.000000
   1.02741000E-01    1.00000000E+00 
S    1    1.000000
   3.60000000E-02    1.00000000E+00 
P    1    1.000000
   7.50000000E-01    1.00000000E+00 

4    0
S    3    1.000000
   3.38650000E+01    2.54938000E-02 
   5.09479000E+00    1.90373000E-01 
   1.15879000E+00    8.52161000E-01 
S    1    1.000000
   3.25840000E-01    1.00000000E+00 
S    1    1.000000
   1.02741000E-01    1.00000000E+00 
S    1    1.000000
   3.60000000E-02    1.00000000E+00 
P    1    1.000000
   7.50000000E-01    1.00000000E+00 

5    0
S    1    1.000000
   4.56324000E+03    1.96665000E-03 
S    1    1.000000
   6.82024000E+02    1.52306000E-02 
S    1    1.000000
   1.54973000E+02    7.61269000E-02 
S    1    1.000000
   4.44553000E+01    2.60801000E-01 
S    1    1.000000
   1.30290000E+01    6.16462000E-01 
S    1    1.000000
   1.82773000E+00    2.21006000E-01 
SP   3    1.000000
   2.09642000E+01    1.14660000E-01   4.02487000E-02 
   4.80331000E+00    9.19999000E-01   2.37594000E-01 
   1.45933000E+00   -3.03068000E-03   8.15854000E-01 
SP   1    1.000000
   4.83456000E-01    1.00000000E+00   1.00000000E+00 
SP   1    1.000000
   1.45585000E-01    1.00000000E+00   1.00000000E+00 
SP   1    1.000000
   4.38000000E-02    1.00000000E+00   1.00000000E+00 
SP   1    1.000000
   1.31927711E-02    1.00000000E+00   1.00000000E+00 
D    1    1.000000
   6.26000000E-01    1.00000000E+00 

6    0
S    1    1.000000
   8.58850000E+03    1.89515000E-03 
S    1    1.000000
   1.29723000E+03    1.43859000E-02 
S    1    1.000000
   2.99296000E+02    7.07320000E-02 
S    1    1.000000
   8.73771000E+01    2.40001000E-01 
S    1    1.000000
   2.56789000E+01    5.94797000E-01 
S    1    1.000000
   3.74004000E+00    2.80802000E-01 
SP   3    1.000000
   4.21175000E+01    1.13889000E-01   3.65114000E-02 
   9.62837000E+00    9.20811000E-01   2.37153000E-01 
   2.85332000E+00   -3.27447000E-03   8.19702000E-01 
SP   1    1.000000
   9.05661000E-01    1.00000000E+00   1.00000000E+00 
SP   1    1.000000
   2.55611000E-01    1.00000000E+00   1.00000000E+00 
SP   1    1.000000
   8.45000000E-02    1.00000000E+00   1.00000000E+00 
SP   1    1.000000
   2.54518072E-02    1.00000000E+00   1.00000000E+00 
D    1    1.000000
   1.29200000E+00    1.00000000E+00 

7    0
S    1    1.000000
   4.56324000E+03    1.96665000E-03 
S    1    1.000000
   6.82024000E+02    1.52306000E-02 
S    1    1.000000
   1.54973000E+02    7.61269000E-02 
S    1    1.000000
   4.44553000E+01    2.60801000E-01 
S    1    1.000000
   1.30290000E+01    6.16462000E-01 
S    1    1.000000
   1.82773000E+00    2.21006000E-01 
SP   3    1.000000
   2.09642000E+01    1.14660000E-01   4.02487000E-02 
   4.80331000E+00    9.19999000E-01   2.37594000E-01 
   1.45933000E+00   -3.03068000E-03   8.15854000E-01 
SP   1    1.000000
   4.83456000E-01    1.00000000E+00   1.00000000E+00 
SP   1    1.000000
   1.45585000E-01    1.00000000E+00   1.00000000E+00 
SP   1    1.000000
   4.38000000E-02    1.00000000E+00   1.00000000E+00 
SP   1    1.000000
   1.31927711E-02    1.00000000E+00   1.00000000E+00 
D    1    1.000000
   6.26000000E-01    1.00000000E+00 

8    0
S    1    1.000000
   8.58850000E+03    1.89515000E-03 
S    1    1.000000
   1.29723000E+03    1.43859000E-02 
S    1    1.000000
   2.99296000E+02    7.07320000E-02 
S    1    1.000000
   8.73771000E+01    2.40001000E-01 
S    1    1.000000
   2.56789000E+01    5.94797000E-01 
S    1    1.000000
   3.74004000E+00    2.80802000E-01 
SP   3    1.000000
   4.21175000E+01    1.13889000E-01   3.65114000E-02 
   9.62837000E+00    9.20811000E-01   2.37153000E-01 
   2.85332000E+00   -3.27447000E-03   8.19702000E-01 
SP   1    1.000000
   9.05661000E-01    1.00000000E+00   1.00000000E+00 
SP   1    1.000000
   2.55611000E-01    1.00000000E+00   1.00000000E+00 
SP   1    1.000000
   8.45000000E-02    1.00000000E+00   1.00000000E+00 
SP   1    1.000000
   2.54518072E-02    1.00000000E+00   1.00000000E+00 
D    1    1.000000
   1.29200000E+00    1.00000000E+00 

9    0
S    1    1.000000
   6.29348000E+03    1.96979000E-03 
S    1    1.000000
   9.49044000E+02    1.49613000E-02 
S    1    1.000000
   2.18776000E+02    7.35006000E-02 
S    1    1.000000
   6.36916000E+01    2.48937000E-01 
S    1    1.000000
   1.88282000E+01    6.02460000E-01 
S    1    1.000000
   2.72023000E+00    2.56202000E-01 
SP   3    1.000000
   3.06331000E+01    1.11906000E-01   3.83119000E-02 
   7.02614000E+00    9.21666000E-01   2.37403000E-01 
   2.11205000E+00   -2.56919000E-03   8.17592000E-01 
SP   1    1.000000
   6.84009000E-01    1.00000000E+00   1.00000000E+00 
SP   1    1.000000
   2.00878000E-01    1.00000000E+00   1.00000000E+00 
SP   1    1.000000
   6.39000000E-02    1.00000000E+00   1.00000000E+00 
SP   1    1.000000
   1.92469880E-02    1.00000000E+00   1.00000000E+00 
D    1    1.000000
   9.13000000E-01    1.00000000E+00 

10    0
S    1    1.000000
   6.29348000E+03    1.96979000E-03 
S    1    1.000000
   9.49044000E+02    1.49613000E-02 
S    1    1.000000
   2.18776000E+02    7.35006000E-02 
S    1    1.000000
   6.36916000E+01    2.48937000E-01 
S    1    1.000000
   1.88282000E+01    6.02460000E-01 
S    1    1.000000
   2.72023000E+00    2.56202000E-01 
SP   3    1.000000
   3.06331000E+01    1.11906000E-01   3.83119000E-02 
   7.02614000E+00    9.21666000E-01   2.37403000E-01 
   2.11205000E+00   -2.56919000E-03   8.17592000E-01 
SP   1    1.000000
   6.84009000E-01    1.00000000E+00   1.00000000E+00 
SP   1    1.000000
   2.00878000E-01    1.00000000E+00   1.00000000E+00 
SP   1    1.000000
   6.39000000E-02    1.00000000E+00   1.00000000E+00 
SP   1    1.000000
   1.92469880E-02    1.00000000E+00   1.00000000E+00 
D    1    1.000000
   9.13000000E-01    1.00000000E+00 

11    0
S    1    1.000000
   4.56324000E+03    1.96665000E-03 
S    1    1.000000
   6.82024000E+02    1.52306000E-02 
S    1    1.000000
   1.54973000E+02    7.61269000E-02 
S    1    1.000000
   4.44553000E+01    2.60801000E-01 
S    1    1.000000
   1.30290000E+01    6.16462000E-01 
S    1    1.000000
   1.82773000E+00    2.21006000E-01 
SP   3    1.000000
   2.09642000E+01    1.14660000E-01   4.02487000E-02 
   4.80331000E+00    9.19999000E-01   2.37594000E-01 
   1.45933000E+00   -3.03068000E-03   8.15854000E-01 
SP   1    1.000000
   4.83456000E-01    1.00000000E+00   1.00000000E+00 
SP   1    1.000000
   1.45585000E-01    1.00000000E+00   1.00000000E+00 
SP   1    1.000000
   4.38000000E-02    1.00000000E+00   1.00000000E+00 
SP   1    1.000000
   1.31927711E-02    1.00000000E+00   1.00000000E+00 
D    1    1.000000
   6.26000000E-01    1.00000000E+00 

12    0
S    3    1.000000
   3.38650000E+01    2.54938000E-02 
   5.09479000E+00    1.90373000E-01 
   1.15879000E+00    8.52161000E-01 
S    1    1.000000
   3.25840000E-01    1.00000000E+00 
S    1    1.000000
   1.02741000E-01    1.00000000E+00 
S    1    1.000000
   3.60000000E-02    1.00000000E+00 
P    1    1.000000
   7.50000000E-01    1.00000000E+00 

[MO]
Sym=X
Ene=0.951217
Spin=Alpha
Occup=1
1    0.00110927498
2    0.00858759528
3    0.0428385213
4    0.147078331
5    0.347443602
6    0.126694085
7    0.465268725
8    -0.00111196998
9    0.000316581394
10    -8.73425075e-16
11    0.00168173183
12    0.00107369597
13    -5.87513116e-05
14    2.31803454e-15
15    0.00145896375
16    -0.000308250353
17    0.000846271301
18    -8.60337808e-15
19    0.000849251449
20    -0.000707018107
21    0.000536917385
22    8.82547878e-14
23    -0.000156924319
24    7.57758188e-05
25    -3.58285856e-05
26    -6.48918282e-14
27    0.000370670111
28    -3.333839e-16
29    -0.000238048455
30    6.41239227e-17
31    9.35821581e-05
32    2.91380799e-05
33    5.24101864e-05
34    3.90198775e-05
35    -9.55185374e-05
36    4.69521787e-05
37    1.5361186e-05
38    -2.17857197e-16
39    0.000380725243
40    0.00046508478
41    0.000231985976
42    0.000123192142
43    4.28762527e-05
44    0.000309270942
45    -1.37609038e-16
46    1.26813225e-05
47    -5.63554394e-05
48    0.000242199992
49    0.000257663585
50    5.7116604e-06
51    4.61197983e-06
52    6.89229788e-16
53    2.06594235e-07
54    1.63137314e-06
55    7.91133589e-06
56    2.80199833e-05
57    5.69056471e-05
58    -2.38208391e-05
59    0.000112015779
60    -5.0777383e-06
61    2.13232031e-05
62    2.29139163e-15
63    0.000111101932
64    1.90785217e-05
65    -8.45680857e-05
66    2.23122394e-16
67    0.000219655381
68    -0.000642875544
69    0.00040452729
70    4.87765795e-15
71    0.000676784613
72    -0.00032335638
73    0.00057560761
74    1.00817872e-13
75    0.000506860871
76    0.000174134925
77    8.73377311e-06
78    8.10185178e-14
79    -1.81581361e-05
80    4.93757259e-16
81    4.13023787e-06
82    -7.15477373e-16
83    -4.45524973e-05
84    -2.63558554e-09
85    6.06026595e-09
86    -1.5928044e-07
87    1.64369113e-07
88    -6.45139538e-06
89    -2.59867323e-05
90    1.43250948e-05
91    -4.18879121e-06
92    1.92019172e-06
93    1.53931124e-15
94    7.03700345e-05
95    2.67861979e-05
96    -2.61188022e-05
97    1.50746579e-15
98    -0.000306535485
99    -0.000158075539
100    8.76198239e-05
101    6.91926083e-15
102    -0.00103617705
103    -0.000163550719
104    0.000139073408
105    -7.82657468e-15
106    -0.00135768195
107    -0.00027475055
108    4.89900317e-05
109    -2.70976599e-14
110    -2.37696568e-06
111    -7.80537901e-16
112    7.1301155e-07
113    4.81361862e-16
114    -5.38558366e-06
115    -3.45667652e-09
116    2.56478045e-08
117    -2.50364622e-07
118    6.08428881e-07
119    -1.24370575e-05
120    -5.88780206e-05
121    3.23093088e-05
122    6.98288281e-06
123    2.48566797e-05
124    1.38926363e-16
125    0.000102301026
126    -3.12802184e-05
127    -0.00012775844
128    2.76581434e-16
129    0.000207984043
130    -0.000185898232
131    -0.000109921725
132    -4.47685873e-15
133    -0.000174952097
134    0.000265503966
135    0.000249259653
136    1.01483296e-13
137    3.68416075e-05
138    0.000189926345
139    -7.20426491e-05
140    -3.3491697e-14
141    3.6717836e-05
142    -1.57615899e-16
143    -7.27634906e-06
144    -3.50922289e-16
145    -5.60676214e-05
146    -4.19573339e-10
147    -4.21153103e-09
148    -1.38561516e-08
149    -7.21577989e-08
150    1.31230844e-07
151    1.31505716e-06
152    -1.19753117e-06
153    8.32487241e-07
154    2.91494099e-06
155    4.88211467e-16
156    -6.5216111e-06
157    -8.13587218e-06
158    -2.11186196e-05
159    -2.90154519e-15
160    0.000106630799
161    2.11656782e-06
162    3.61823588e-07
163    7.04706229e-15
164    -0.000117935909
165    -4.47683979e-06
166    -1.39759231e-05
167    -1.95218964e-14
168    -6.72888986e-06
169    1.81354085e-05
170    -4.70160928e-05
171    3.76413055e-15
172    4.71720177e-06
173    -6.2968725e-17
174    -1.33933929e-06
175    -2.6338385e-16
176    -6.95615558e-06
177    1.33646799e-09
178    5.03821133e-08
179    -4.21658127e-08
180    9.71919072e-07
181    -7.75441113e-06
182    -3.71775702e-05
183    2.42626006e-05
184    -1.43984444e-07
185    8.21532728e-06
186    2.3984263e-15
187    7.07455662e-05
188    -3.97655884e-06
189    -3.1045679e-05
190    -4.0958321e-15
191    3.50951871e-05
192    -5.10040208e-05
193    1.8623344e-05
194    2.01979773e-14
195    9.2467592e-05
196    0.000165915157
197    -0.000546428
198    -6.84981008e-14
199    0.000763988584
200    -0.000289013473
201    -0.000129069417
202    -6.8179138e-14
203    5.67437176e-06
204    -2.30308935e-16
205    -2.92667975e-06
206    -4.16837608e-16
207    6.5711396e-06
208    -3.16214096e-07
209    -2.23414333e-06
210    -1.23169219e-05
211    -3.71242609e-05
212    -0.000136634978
213    -0.00027928966
214    -7.07668179e-05
215    6.72984817e-05
216    -4.05550108e-05
217    3.00304448e-15
218    0.000673005299
219    0.000734017758
220    -0.0004443194
221    -6.78036821e-15
222    -8.94758879e-05
223    -1.48734665e-05
224    8.47428874e-05
225    2.28007282e-14
226    -0.00130434849
227    -0.000447159477
228    0.000372930751
229    -7.01289823e-14
230    -0.000574748407
231    -0.000319498204
232    5.83998548e-05
233    -2.75634598e-14
234    -0.000328724657
235    5.49134425e-17
236    -0.000130421203
237    1.63664557e-16
238    0.000183645854
239    1.26480769e-05
240    9.77643796e-05
241    0.000488650081
242    0.00167328857
243    0.00399197959
244    0.00153296515
245    0.00515585946
246    -0.000152504909
247    -7.06466476e-05
248    2.87469839e-16
249    0.000189965012
250    -0.000239619387
251    -0.000107721198
252    -2.71791975e-15
253    -0.000780145244
254    0.000584247743
255    -0.000258332851
256    1.06854579e-14
257    0.00119278269
258    -3.54773011e-05
259    -0.000621141575
260    -9.98274028e-14
261    -0.000217781643
262    -0.000169130795
263    -0.000106093268
264    6.85904659e-14
265    0.000164741577
266    4.51516021e-16
267    4.9895547e-05
268    -6.63361564e-16
269    0.000150500688
270    2.99537833e-05
271    2.71570269e-05
272    -0.000356896373
273    -0.000279604716
274    -8.84154412e-05
275    -1.31617494e-05
276    -6.77728042e-16
[5D]