[Molden Format]
[Atoms] (Angs)
  C      1    6     -0.00714236     -1.70213747     -0.00000000
  H      2    1     -2.06882847     -1.44022412      0.00000000
  H      3    1     -0.12337987     -2.77567521      0.00000000
  H      4    1      0.04651892      1.98813947     -0.00000000
  C      5    6     -1.21953563      0.40211669      0.00000000
  O      6    8     -2.25921553      1.03043814      0.00000000
  C      7    6      1.28797806      0.34644937     -0.00000000
  O      8    8      2.31273661      1.00537216     -0.00000000
  N      9    7      0.03446295      0.97739857     -0.00000000
  N     10    7     -1.17287765     -0.98229824      0.00000000
  C     11    6      1.20107039     -1.10433419     -0.00000000
  H     12    1      2.11220096     -1.67699125     -0.00000000
[GTO]
1    0
S    1    1.000000
   4.56324000E+03    1.96665000E-03 
S    1    1.000000
   6.82024000E+02    1.52306000E-02 
S    1    1.000000
   1.54973000E+02    7.61269000E-02 
S    1    1.000000
   4.44553000E+01    2.60801000E-01 
S    1    1.000000
   1.30290000E+01    6.16462000E-01 
S    1    1.000000
   1.82773000E+00    2.21006000E-01 
SP   3    1.000000
   2.09642000E+01    1.14660000E-01   4.02487000E-02 
   4.80331000E+00    9.19999000E-01   2.37594000E-01 
   1.45933000E+00   -3.03068000E-03   8.15854000E-01 
SP   1    1.000000
   4.83456000E-01    1.00000000E+00   1.00000000E+00 
SP   1    1.000000
   1.45585000E-01    1.00000000E+00   1.00000000E+00 
SP   1    1.000000
   4.38000000E-02    1.00000000E+00   1.00000000E+00 
SP   1    1.000000
   1.31927711E-02    1.00000000E+00   1.00000000E+00 
D    1    1.000000
   6.26000000E-01    1.00000000E+00 

2    0
S    3    1.000000
   3.38650000E+01    2.54938000E-02 
   5.09479000E+00    1.90373000E-01 
   1.15879000E+00    8.52161000E-01 
S    1    1.000000
   3.25840000E-01    1.00000000E+00 
S    1    1.000000
   1.02741000E-01    1.00000000E+00 
S    1    1.000000
   3.60000000E-02    1.00000000E+00 
P    1    1.000000
   7.50000000E-01    1.00000000E+00 

3    0
S    3    1.000000
   3.38650000E+01    2.54938000E-02 
   5.09479000E+00    1.90373000E-01 
   1.15879000E+00    8.52161000E-01 
S    1    1.000000
   3.25840000E-01    1.00000000E+00 
S    1    1.000000
   1.02741000E-01    1.00000000E+00 
S    1    1.000000
   3.60000000E-02    1.00000000E+00 
P    1    1.000000
   7.50000000E-01    1.00000000E+00 

4    0
S    3    1.000000
   3.38650000E+01    2.54938000E-02 
   5.09479000E+00    1.90373000E-01 
   1.15879000E+00    8.52161000E-01 
S    1    1.000000
   3.25840000E-01    1.00000000E+00 
S    1    1.000000
   1.02741000E-01    1.00000000E+00 
S    1    1.000000
   3.60000000E-02    1.00000000E+00 
P    1    1.000000
   7.50000000E-01    1.00000000E+00 

5    0
S    1    1.000000
   4.56324000E+03    1.96665000E-03 
S    1    1.000000
   6.82024000E+02    1.52306000E-02 
S    1    1.000000
   1.54973000E+02    7.61269000E-02 
S    1    1.000000
   4.44553000E+01    2.60801000E-01 
S    1    1.000000
   1.30290000E+01    6.16462000E-01 
S    1    1.000000
   1.82773000E+00    2.21006000E-01 
SP   3    1.000000
   2.09642000E+01    1.14660000E-01   4.02487000E-02 
   4.80331000E+00    9.19999000E-01   2.37594000E-01 
   1.45933000E+00   -3.03068000E-03   8.15854000E-01 
SP   1    1.000000
   4.83456000E-01    1.00000000E+00   1.00000000E+00 
SP   1    1.000000
   1.45585000E-01    1.00000000E+00   1.00000000E+00 
SP   1    1.000000
   4.38000000E-02    1.00000000E+00   1.00000000E+00 
SP   1    1.000000
   1.31927711E-02    1.00000000E+00   1.00000000E+00 
D    1    1.000000
   6.26000000E-01    1.00000000E+00 

6    0
S    1    1.000000
   8.58850000E+03    1.89515000E-03 
S    1    1.000000
   1.29723000E+03    1.43859000E-02 
S    1    1.000000
   2.99296000E+02    7.07320000E-02 
S    1    1.000000
   8.73771000E+01    2.40001000E-01 
S    1    1.000000
   2.56789000E+01    5.94797000E-01 
S    1    1.000000
   3.74004000E+00    2.80802000E-01 
SP   3    1.000000
   4.21175000E+01    1.13889000E-01   3.65114000E-02 
   9.62837000E+00    9.20811000E-01   2.37153000E-01 
   2.85332000E+00   -3.27447000E-03   8.19702000E-01 
SP   1    1.000000
   9.05661000E-01    1.00000000E+00   1.00000000E+00 
SP   1    1.000000
   2.55611000E-01    1.00000000E+00   1.00000000E+00 
SP   1    1.000000
   8.45000000E-02    1.00000000E+00   1.00000000E+00 
SP   1    1.000000
   2.54518072E-02    1.00000000E+00   1.00000000E+00 
D    1    1.000000
   1.29200000E+00    1.00000000E+00 

7    0
S    1    1.000000
   4.56324000E+03    1.96665000E-03 
S    1    1.000000
   6.82024000E+02    1.52306000E-02 
S    1    1.000000
   1.54973000E+02    7.61269000E-02 
S    1    1.000000
   4.44553000E+01    2.60801000E-01 
S    1    1.000000
   1.30290000E+01    6.16462000E-01 
S    1    1.000000
   1.82773000E+00    2.21006000E-01 
SP   3    1.000000
   2.09642000E+01    1.14660000E-01   4.02487000E-02 
   4.80331000E+00    9.19999000E-01   2.37594000E-01 
   1.45933000E+00   -3.03068000E-03   8.15854000E-01 
SP   1    1.000000
   4.83456000E-01    1.00000000E+00   1.00000000E+00 
SP   1    1.000000
   1.45585000E-01    1.00000000E+00   1.00000000E+00 
SP   1    1.000000
   4.38000000E-02    1.00000000E+00   1.00000000E+00 
SP   1    1.000000
   1.31927711E-02    1.00000000E+00   1.00000000E+00 
D    1    1.000000
   6.26000000E-01    1.00000000E+00 

8    0
S    1    1.000000
   8.58850000E+03    1.89515000E-03 
S    1    1.000000
   1.29723000E+03    1.43859000E-02 
S    1    1.000000
   2.99296000E+02    7.07320000E-02 
S    1    1.000000
   8.73771000E+01    2.40001000E-01 
S    1    1.000000
   2.56789000E+01    5.94797000E-01 
S    1    1.000000
   3.74004000E+00    2.80802000E-01 
SP   3    1.000000
   4.21175000E+01    1.13889000E-01   3.65114000E-02 
   9.62837000E+00    9.20811000E-01   2.37153000E-01 
   2.85332000E+00   -3.27447000E-03   8.19702000E-01 
SP   1    1.000000
   9.05661000E-01    1.00000000E+00   1.00000000E+00 
SP   1    1.000000
   2.55611000E-01    1.00000000E+00   1.00000000E+00 
SP   1    1.000000
   8.45000000E-02    1.00000000E+00   1.00000000E+00 
SP   1    1.000000
   2.54518072E-02    1.00000000E+00   1.00000000E+00 
D    1    1.000000
   1.29200000E+00    1.00000000E+00 

9    0
S    1    1.000000
   6.29348000E+03    1.96979000E-03 
S    1    1.000000
   9.49044000E+02    1.49613000E-02 
S    1    1.000000
   2.18776000E+02    7.35006000E-02 
S    1    1.000000
   6.36916000E+01    2.48937000E-01 
S    1    1.000000
   1.88282000E+01    6.02460000E-01 
S    1    1.000000
   2.72023000E+00    2.56202000E-01 
SP   3    1.000000
   3.06331000E+01    1.11906000E-01   3.83119000E-02 
   7.02614000E+00    9.21666000E-01   2.37403000E-01 
   2.11205000E+00   -2.56919000E-03   8.17592000E-01 
SP   1    1.000000
   6.84009000E-01    1.00000000E+00   1.00000000E+00 
SP   1    1.000000
   2.00878000E-01    1.00000000E+00   1.00000000E+00 
SP   1    1.000000
   6.39000000E-02    1.00000000E+00   1.00000000E+00 
SP   1    1.000000
   1.92469880E-02    1.00000000E+00   1.00000000E+00 
D    1    1.000000
   9.13000000E-01    1.00000000E+00 

10    0
S    1    1.000000
   6.29348000E+03    1.96979000E-03 
S    1    1.000000
   9.49044000E+02    1.49613000E-02 
S    1    1.000000
   2.18776000E+02    7.35006000E-02 
S    1    1.000000
   6.36916000E+01    2.48937000E-01 
S    1    1.000000
   1.88282000E+01    6.02460000E-01 
S    1    1.000000
   2.72023000E+00    2.56202000E-01 
SP   3    1.000000
   3.06331000E+01    1.11906000E-01   3.83119000E-02 
   7.02614000E+00    9.21666000E-01   2.37403000E-01 
   2.11205000E+00   -2.56919000E-03   8.17592000E-01 
SP   1    1.000000
   6.84009000E-01    1.00000000E+00   1.00000000E+00 
SP   1    1.000000
   2.00878000E-01    1.00000000E+00   1.00000000E+00 
SP   1    1.000000
   6.39000000E-02    1.00000000E+00   1.00000000E+00 
SP   1    1.000000
   1.92469880E-02    1.00000000E+00   1.00000000E+00 
D    1    1.000000
   9.13000000E-01    1.00000000E+00 

11    0
S    1    1.000000
   4.56324000E+03    1.96665000E-03 
S    1    1.000000
   6.82024000E+02    1.52306000E-02 
S    1    1.000000
   1.54973000E+02    7.61269000E-02 
S    1    1.000000
   4.44553000E+01    2.60801000E-01 
S    1    1.000000
   1.30290000E+01    6.16462000E-01 
S    1    1.000000
   1.82773000E+00    2.21006000E-01 
SP   3    1.000000
   2.09642000E+01    1.14660000E-01   4.02487000E-02 
   4.80331000E+00    9.19999000E-01   2.37594000E-01 
   1.45933000E+00   -3.03068000E-03   8.15854000E-01 
SP   1    1.000000
   4.83456000E-01    1.00000000E+00   1.00000000E+00 
SP   1    1.000000
   1.45585000E-01    1.00000000E+00   1.00000000E+00 
SP   1    1.000000
   4.38000000E-02    1.00000000E+00   1.00000000E+00 
SP   1    1.000000
   1.31927711E-02    1.00000000E+00   1.00000000E+00 
D    1    1.000000
   6.26000000E-01    1.00000000E+00 

12    0
S    3    1.000000
   3.38650000E+01    2.54938000E-02 
   5.09479000E+00    1.90373000E-01 
   1.15879000E+00    8.52161000E-01 
S    1    1.000000
   3.25840000E-01    1.00000000E+00 
S    1    1.000000
   1.02741000E-01    1.00000000E+00 
S    1    1.000000
   3.60000000E-02    1.00000000E+00 
P    1    1.000000
   7.50000000E-01    1.00000000E+00 

[MO]
Sym=X
Ene=0.030968
Spin=Alpha
Occup=1
1    -4.03404705e-05
2    -0.000312343839
3    -0.00155780518
4    -0.00534964079
5    -0.0126258806
6    -0.00456088433
7    -0.0169537641
8    6.79422223e-05
9    8.41408718e-06
10    -8.05359139e-16
11    -0.000138334083
12    -0.000116665861
13    -7.62669419e-05
14    1.84083704e-15
15    -5.57188525e-05
16    8.51404528e-05
17    -0.00018568907
18    -4.52085139e-15
19    0.00161263119
20    5.03671094e-05
21    0.000532681456
22    3.02021037e-14
23    -2.49848391e-05
24    -0.000104356909
25    0.000196814655
26    5.12832312e-14
27    -6.69748874e-05
28    -6.57693102e-16
29    7.05406174e-06
30    -5.7490058e-16
31    -4.49341913e-07
32    -9.99064398e-06
33    4.13021454e-05
34    -0.000206418189
35    -0.00029355885
36    -8.52089563e-07
37    4.24623757e-06
38    7.42636103e-16
39    -1.10607306e-05
40    -0.000100955716
41    -1.40282232e-06
42    -1.16139891e-05
43    -1.39211234e-05
44    -2.51957857e-05
45    -2.70318989e-16
46    -3.26507388e-05
47    -4.5104851e-05
48    -0.000140633047
49    0.000241196371
50    1.22426815e-05
51    3.93392111e-05
52    -4.20468701e-16
53    2.87504116e-05
54    0.000222542244
55    0.00111037623
56    0.00381136514
57    0.00901247797
58    0.00331334323
59    0.0120399392
60    3.41925854e-05
61    -1.05268174e-05
62    1.36930129e-15
63    -2.97521176e-05
64    -7.01759268e-05
65    1.22960004e-05
66    -2.87374008e-16
67    2.54234377e-05
68    0.000471733687
69    -0.000227149777
70    4.15994925e-15
71    -0.000603911703
72    0.000106170241
73    0.000245578802
74    2.53925541e-14
75    0.000442807602
76    0.000172856946
77    6.37081641e-05
78    9.71696458e-15
79    -1.14253591e-05
80    -4.85432647e-16
81    -7.78177772e-06
82    -8.28857149e-16
83    -3.72657105e-05
84    -1.44238584e-07
85    -1.10804768e-06
86    -5.3593177e-06
87    -1.85277337e-05
88    -4.29684998e-05
89    -1.18917845e-05
90    -7.35485114e-05
91    6.29002674e-06
92    -4.10623301e-06
93    5.50047554e-16
94    -2.27471829e-05
95    -5.72677153e-06
96    -6.28084223e-06
97    9.38199146e-16
98    0.000173400122
99    7.82106702e-05
100    -6.17714204e-05
101    3.45861517e-15
102    0.000762224135
103    0.000238413219
104    -6.38303294e-05
105    -3.28118927e-15
106    0.000227705123
107    -3.98121312e-05
108    -0.000198688789
109    1.27508696e-14
110    -1.11522754e-05
111    -6.70965918e-16
112    -4.32246727e-06
113    1.01622296e-16
114    -1.51127684e-06
115    -0.00110556349
116    -0.00855870725
117    -0.0426957811
118    -0.146582301
119    -0.346303445
120    -0.126000521
121    -0.463807675
122    0.000736973968
123    -0.000496839871
124    -2.3551019e-15
125    -0.00158219386
126    -0.000805535604
127    0.000200152036
128    -4.90363123e-15
129    -0.00157294371
130    0.000343254579
131    -0.000337682185
132    -4.83064152e-15
133    0.00229474775
134    -0.000115085101
135    -0.00235948185
136    3.47707806e-14
137    0.000249725992
138    0.000281478223
139    -4.54700227e-05
140    4.98765477e-17
141    -0.000331194426
142    -2.23197298e-16
143    0.000248641894
144    -1.76279751e-16
145    2.66309096e-05
146    4.15038198e-07
147    3.05681632e-06
148    1.58994769e-05
149    5.12004911e-05
150    0.000150693528
151    0.000197171616
152    0.000212016028
153    0.000204967045
154    0.000138332285
155    -1.98278146e-15
156    -0.000633180285
157    0.000553003988
158    0.000368093498
159    -1.93277608e-15
160    0.000242288657
161    -0.000217380648
162    -0.000113317041
163    -2.85395524e-15
164    0.000290529074
165    8.50040355e-05
166    0.000194905832
167    -1.25991652e-14
168    0.00206880358
169    -0.000563421678
170    -5.2258038e-05
171    6.67323922e-15
172    -0.000253845611
173    2.76464856e-16
174    0.000114122466
175    4.44445004e-16
176    -0.00011506683
177    2.07892466e-06
178    1.56506515e-05
179    7.80712766e-05
180    0.000260129253
181    0.000675955834
182    0.000491200373
183    0.000815912483
184    -4.86585519e-05
185    3.79361198e-05
186    1.27353608e-16
187    -0.000545718365
188    -0.000701398528
189    0.000318621639
190    -4.91202205e-15
191    -3.40200867e-05
192    0.000153360169
193    0.000139052504
194    5.80611447e-15
195    0.00128636456
196    0.000999197453
197    2.02417392e-05
198    -2.88700471e-14
199    -0.000403603595
200    -0.000597634796
201    -0.000100991455
202    -1.37824433e-14
203    0.000270645216
204    1.14527112e-16
205    0.000120595195
206    -8.22408837e-16
207    -0.000208907098
208    4.70926622e-07
209    3.54818035e-06
210    1.76561413e-05
211    5.88957927e-05
212    0.000151877864
213    9.82131727e-05
214    0.000178992434
215    2.86907203e-06
216    5.81287947e-06
217    1.80903382e-15
218    -7.36261596e-05
219    -4.82548975e-05
220    2.23172861e-05
221    4.23175098e-16
222    3.41602295e-05
223    3.95596003e-05
224    -2.96265786e-05
225    5.99628486e-15
226    -6.24467992e-06
227    -0.000405175789
228    -7.77027318e-05
229    -1.09879315e-14
230    -0.000667448987
231    3.31457705e-05
232    -0.000327714292
233    -4.52345796e-14
234    1.860808e-05
235    -2.35702603e-16
236    5.15288511e-06
237    -1.45097892e-16
238    -8.46301862e-06
239    7.98850156e-05
240    0.000618497007
241    0.00308499444
242    0.0105938739
243    0.0250168102
244    0.00918315818
245    0.0335454341
246    -6.20809994e-06
247    -6.94139908e-05
248    -1.305827e-15
249    -0.000162841852
250    -7.00745914e-05
251    -0.000493951436
252    -2.70750606e-15
253    0.000367245017
254    -0.000132774038
255    0.000327344473
256    -9.12291822e-16
257    -0.00583989451
258    0.000212480899
259    -0.00134221522
260    -3.31680299e-14
261    -0.000594281582
262    -8.31636545e-05
263    -0.000345273261
264    -2.98455139e-14
265    -3.54870054e-05
266    -8.14762642e-16
267    1.31799859e-05
268    -1.13230691e-17
269    0.000283239585
270    2.23528407e-06
271    -5.68731801e-05
272    0.000213148666
273    -0.000223941876
274    1.94212024e-05
275    -5.97660187e-05
276    -5.36772746e-16
[5D]