[Molden Format]
[Atoms] (Angs)
  C      1    6     -0.00714236     -1.70213747     -0.00000000
  H      2    1     -2.06882847     -1.44022412      0.00000000
  H      3    1     -0.12337987     -2.77567521      0.00000000
  H      4    1      0.04651892      1.98813947     -0.00000000
  C      5    6     -1.21953563      0.40211669      0.00000000
  O      6    8     -2.25921553      1.03043814      0.00000000
  C      7    6      1.28797806      0.34644937     -0.00000000
  O      8    8      2.31273661      1.00537216     -0.00000000
  N      9    7      0.03446295      0.97739857     -0.00000000
  N     10    7     -1.17287765     -0.98229824      0.00000000
  C     11    6      1.20107039     -1.10433419     -0.00000000
  H     12    1      2.11220096     -1.67699125     -0.00000000
[GTO]
1    0
S    1    1.000000
   4.56324000E+03    1.96665000E-03 
S    1    1.000000
   6.82024000E+02    1.52306000E-02 
S    1    1.000000
   1.54973000E+02    7.61269000E-02 
S    1    1.000000
   4.44553000E+01    2.60801000E-01 
S    1    1.000000
   1.30290000E+01    6.16462000E-01 
S    1    1.000000
   1.82773000E+00    2.21006000E-01 
SP   3    1.000000
   2.09642000E+01    1.14660000E-01   4.02487000E-02 
   4.80331000E+00    9.19999000E-01   2.37594000E-01 
   1.45933000E+00   -3.03068000E-03   8.15854000E-01 
SP   1    1.000000
   4.83456000E-01    1.00000000E+00   1.00000000E+00 
SP   1    1.000000
   1.45585000E-01    1.00000000E+00   1.00000000E+00 
SP   1    1.000000
   4.38000000E-02    1.00000000E+00   1.00000000E+00 
SP   1    1.000000
   1.31927711E-02    1.00000000E+00   1.00000000E+00 
D    1    1.000000
   6.26000000E-01    1.00000000E+00 

2    0
S    3    1.000000
   3.38650000E+01    2.54938000E-02 
   5.09479000E+00    1.90373000E-01 
   1.15879000E+00    8.52161000E-01 
S    1    1.000000
   3.25840000E-01    1.00000000E+00 
S    1    1.000000
   1.02741000E-01    1.00000000E+00 
S    1    1.000000
   3.60000000E-02    1.00000000E+00 
P    1    1.000000
   7.50000000E-01    1.00000000E+00 

3    0
S    3    1.000000
   3.38650000E+01    2.54938000E-02 
   5.09479000E+00    1.90373000E-01 
   1.15879000E+00    8.52161000E-01 
S    1    1.000000
   3.25840000E-01    1.00000000E+00 
S    1    1.000000
   1.02741000E-01    1.00000000E+00 
S    1    1.000000
   3.60000000E-02    1.00000000E+00 
P    1    1.000000
   7.50000000E-01    1.00000000E+00 

4    0
S    3    1.000000
   3.38650000E+01    2.54938000E-02 
   5.09479000E+00    1.90373000E-01 
   1.15879000E+00    8.52161000E-01 
S    1    1.000000
   3.25840000E-01    1.00000000E+00 
S    1    1.000000
   1.02741000E-01    1.00000000E+00 
S    1    1.000000
   3.60000000E-02    1.00000000E+00 
P    1    1.000000
   7.50000000E-01    1.00000000E+00 

5    0
S    1    1.000000
   4.56324000E+03    1.96665000E-03 
S    1    1.000000
   6.82024000E+02    1.52306000E-02 
S    1    1.000000
   1.54973000E+02    7.61269000E-02 
S    1    1.000000
   4.44553000E+01    2.60801000E-01 
S    1    1.000000
   1.30290000E+01    6.16462000E-01 
S    1    1.000000
   1.82773000E+00    2.21006000E-01 
SP   3    1.000000
   2.09642000E+01    1.14660000E-01   4.02487000E-02 
   4.80331000E+00    9.19999000E-01   2.37594000E-01 
   1.45933000E+00   -3.03068000E-03   8.15854000E-01 
SP   1    1.000000
   4.83456000E-01    1.00000000E+00   1.00000000E+00 
SP   1    1.000000
   1.45585000E-01    1.00000000E+00   1.00000000E+00 
SP   1    1.000000
   4.38000000E-02    1.00000000E+00   1.00000000E+00 
SP   1    1.000000
   1.31927711E-02    1.00000000E+00   1.00000000E+00 
D    1    1.000000
   6.26000000E-01    1.00000000E+00 

6    0
S    1    1.000000
   8.58850000E+03    1.89515000E-03 
S    1    1.000000
   1.29723000E+03    1.43859000E-02 
S    1    1.000000
   2.99296000E+02    7.07320000E-02 
S    1    1.000000
   8.73771000E+01    2.40001000E-01 
S    1    1.000000
   2.56789000E+01    5.94797000E-01 
S    1    1.000000
   3.74004000E+00    2.80802000E-01 
SP   3    1.000000
   4.21175000E+01    1.13889000E-01   3.65114000E-02 
   9.62837000E+00    9.20811000E-01   2.37153000E-01 
   2.85332000E+00   -3.27447000E-03   8.19702000E-01 
SP   1    1.000000
   9.05661000E-01    1.00000000E+00   1.00000000E+00 
SP   1    1.000000
   2.55611000E-01    1.00000000E+00   1.00000000E+00 
SP   1    1.000000
   8.45000000E-02    1.00000000E+00   1.00000000E+00 
SP   1    1.000000
   2.54518072E-02    1.00000000E+00   1.00000000E+00 
D    1    1.000000
   1.29200000E+00    1.00000000E+00 

7    0
S    1    1.000000
   4.56324000E+03    1.96665000E-03 
S    1    1.000000
   6.82024000E+02    1.52306000E-02 
S    1    1.000000
   1.54973000E+02    7.61269000E-02 
S    1    1.000000
   4.44553000E+01    2.60801000E-01 
S    1    1.000000
   1.30290000E+01    6.16462000E-01 
S    1    1.000000
   1.82773000E+00    2.21006000E-01 
SP   3    1.000000
   2.09642000E+01    1.14660000E-01   4.02487000E-02 
   4.80331000E+00    9.19999000E-01   2.37594000E-01 
   1.45933000E+00   -3.03068000E-03   8.15854000E-01 
SP   1    1.000000
   4.83456000E-01    1.00000000E+00   1.00000000E+00 
SP   1    1.000000
   1.45585000E-01    1.00000000E+00   1.00000000E+00 
SP   1    1.000000
   4.38000000E-02    1.00000000E+00   1.00000000E+00 
SP   1    1.000000
   1.31927711E-02    1.00000000E+00   1.00000000E+00 
D    1    1.000000
   6.26000000E-01    1.00000000E+00 

8    0
S    1    1.000000
   8.58850000E+03    1.89515000E-03 
S    1    1.000000
   1.29723000E+03    1.43859000E-02 
S    1    1.000000
   2.99296000E+02    7.07320000E-02 
S    1    1.000000
   8.73771000E+01    2.40001000E-01 
S    1    1.000000
   2.56789000E+01    5.94797000E-01 
S    1    1.000000
   3.74004000E+00    2.80802000E-01 
SP   3    1.000000
   4.21175000E+01    1.13889000E-01   3.65114000E-02 
   9.62837000E+00    9.20811000E-01   2.37153000E-01 
   2.85332000E+00   -3.27447000E-03   8.19702000E-01 
SP   1    1.000000
   9.05661000E-01    1.00000000E+00   1.00000000E+00 
SP   1    1.000000
   2.55611000E-01    1.00000000E+00   1.00000000E+00 
SP   1    1.000000
   8.45000000E-02    1.00000000E+00   1.00000000E+00 
SP   1    1.000000
   2.54518072E-02    1.00000000E+00   1.00000000E+00 
D    1    1.000000
   1.29200000E+00    1.00000000E+00 

9    0
S    1    1.000000
   6.29348000E+03    1.96979000E-03 
S    1    1.000000
   9.49044000E+02    1.49613000E-02 
S    1    1.000000
   2.18776000E+02    7.35006000E-02 
S    1    1.000000
   6.36916000E+01    2.48937000E-01 
S    1    1.000000
   1.88282000E+01    6.02460000E-01 
S    1    1.000000
   2.72023000E+00    2.56202000E-01 
SP   3    1.000000
   3.06331000E+01    1.11906000E-01   3.83119000E-02 
   7.02614000E+00    9.21666000E-01   2.37403000E-01 
   2.11205000E+00   -2.56919000E-03   8.17592000E-01 
SP   1    1.000000
   6.84009000E-01    1.00000000E+00   1.00000000E+00 
SP   1    1.000000
   2.00878000E-01    1.00000000E+00   1.00000000E+00 
SP   1    1.000000
   6.39000000E-02    1.00000000E+00   1.00000000E+00 
SP   1    1.000000
   1.92469880E-02    1.00000000E+00   1.00000000E+00 
D    1    1.000000
   9.13000000E-01    1.00000000E+00 

10    0
S    1    1.000000
   6.29348000E+03    1.96979000E-03 
S    1    1.000000
   9.49044000E+02    1.49613000E-02 
S    1    1.000000
   2.18776000E+02    7.35006000E-02 
S    1    1.000000
   6.36916000E+01    2.48937000E-01 
S    1    1.000000
   1.88282000E+01    6.02460000E-01 
S    1    1.000000
   2.72023000E+00    2.56202000E-01 
SP   3    1.000000
   3.06331000E+01    1.11906000E-01   3.83119000E-02 
   7.02614000E+00    9.21666000E-01   2.37403000E-01 
   2.11205000E+00   -2.56919000E-03   8.17592000E-01 
SP   1    1.000000
   6.84009000E-01    1.00000000E+00   1.00000000E+00 
SP   1    1.000000
   2.00878000E-01    1.00000000E+00   1.00000000E+00 
SP   1    1.000000
   6.39000000E-02    1.00000000E+00   1.00000000E+00 
SP   1    1.000000
   1.92469880E-02    1.00000000E+00   1.00000000E+00 
D    1    1.000000
   9.13000000E-01    1.00000000E+00 

11    0
S    1    1.000000
   4.56324000E+03    1.96665000E-03 
S    1    1.000000
   6.82024000E+02    1.52306000E-02 
S    1    1.000000
   1.54973000E+02    7.61269000E-02 
S    1    1.000000
   4.44553000E+01    2.60801000E-01 
S    1    1.000000
   1.30290000E+01    6.16462000E-01 
S    1    1.000000
   1.82773000E+00    2.21006000E-01 
SP   3    1.000000
   2.09642000E+01    1.14660000E-01   4.02487000E-02 
   4.80331000E+00    9.19999000E-01   2.37594000E-01 
   1.45933000E+00   -3.03068000E-03   8.15854000E-01 
SP   1    1.000000
   4.83456000E-01    1.00000000E+00   1.00000000E+00 
SP   1    1.000000
   1.45585000E-01    1.00000000E+00   1.00000000E+00 
SP   1    1.000000
   4.38000000E-02    1.00000000E+00   1.00000000E+00 
SP   1    1.000000
   1.31927711E-02    1.00000000E+00   1.00000000E+00 
D    1    1.000000
   6.26000000E-01    1.00000000E+00 

12    0
S    3    1.000000
   3.38650000E+01    2.54938000E-02 
   5.09479000E+00    1.90373000E-01 
   1.15879000E+00    8.52161000E-01 
S    1    1.000000
   3.25840000E-01    1.00000000E+00 
S    1    1.000000
   1.02741000E-01    1.00000000E+00 
S    1    1.000000
   3.60000000E-02    1.00000000E+00 
P    1    1.000000
   7.50000000E-01    1.00000000E+00 

[MO]
Sym=X
Ene=0.9523
Spin=Alpha
Occup=1
1    1.16584724e-09
2    4.63286776e-08
3    -3.66436377e-08
4    8.96473282e-07
5    -8.20966892e-06
6    -4.98872404e-05
7    2.68134765e-05
8    -1.6879621e-05
9    -1.44377232e-05
10    8.85019318e-16
11    0.000117545957
12    0.000118506802
13    0.000102290172
14    -1.97785862e-15
15    -8.15500539e-05
16    -9.37957696e-05
17    0.000104988168
18    4.78511284e-15
19    -0.00175934563
20    -2.21679863e-05
21    -0.000624193522
22    -2.86253554e-14
23    2.23235237e-05
24    9.60609385e-05
25    -0.000213611101
26    -5.32074821e-14
27    7.47841528e-05
28    6.63047294e-16
29    2.68879853e-07
30    5.14828891e-16
31    1.30682617e-05
32    1.04807263e-05
33    -3.86823695e-05
34    0.000213698865
35    0.000324500763
36    1.36216066e-06
37    -4.58354521e-06
38    -6.13000317e-16
39    -2.66027151e-07
40    8.96380306e-05
41    -3.89347089e-05
42    -2.18683419e-05
43    1.66473996e-05
44    1.95310433e-05
45    2.73052271e-16
46    3.45101527e-05
47    5.17462971e-05
48    0.000131884714
49    -0.000232874032
50    -1.22205276e-05
51    -4.14708594e-05
52    3.309686e-16
53    3.57228593e-07
54    2.79470093e-06
55    1.37340182e-05
56    4.79502856e-05
57    0.000105132769
58    2.37303236e-06
59    0.000171567346
60    -1.74080954e-05
61    -1.70573018e-06
62    -1.25159845e-15
63    7.47782049e-05
64    5.17068764e-05
65    2.31532161e-06
66    2.81344888e-16
67    -4.23263516e-05
68    -0.00047762981
69    0.000227881497
70    -3.68920131e-15
71    0.000575811084
72    -0.000130893138
73    -0.000260862827
74    -2.33811387e-14
75    -0.000477773249
76    -0.00018594997
77    -5.74628037e-05
78    -8.71116557e-15
79    5.32821459e-06
80    4.20286745e-16
81    1.99210853e-06
82    7.73642473e-16
83    4.34396138e-05
84    -1.83166249e-09
85    -8.61936396e-10
86    -9.92132869e-08
87    1.74776434e-08
88    -3.36590939e-06
89    -1.29088222e-05
90    6.69862499e-06
91    -1.02357436e-06
92    8.5632362e-07
93    -5.3314679e-16
94    3.69917657e-05
95    2.0060938e-05
96    -1.67600726e-06
97    -7.6999261e-16
98    -0.000177073342
99    -8.27708446e-05
100    6.44704198e-05
101    -3.46699436e-15
102    -0.000766679073
103    -0.000236027205
104    6.16893054e-05
105    3.31002308e-15
106    -0.000214548632
107    4.98656791e-05
108    0.000209041063
109    -1.33973183e-14
110    4.92188523e-06
111    6.86973779e-16
112    1.3396061e-06
113    -6.95986107e-17
114    5.17170688e-06
115    0.00110952703
116    0.00858939155
117    0.0428488396
118    0.147107776
119    0.347544311
120    0.126443541
121    0.465469153
122    -0.000739989107
123    0.000491641712
124    2.08809632e-15
125    0.00162815808
126    0.000805084253
127    -0.000244340453
128    4.7562666e-15
129    0.00152583673
130    -0.000287908611
131    0.000416236171
132    3.96248507e-15
133    -0.00235390071
134    0.000155360045
135    0.00241820589
136    -3.18481078e-14
137    -0.00025979074
138    -0.000297837366
139    4.51349577e-05
140    -1.90542575e-15
141    0.000335110446
142    2.10990308e-16
143    -0.000254713518
144    1.65548466e-16
145    -5.04543911e-05
146    -3.78796752e-07
147    -2.77755244e-06
148    -1.45562409e-05
149    -4.65329288e-05
150    -0.000140087785
151    -0.00019546591
152    -0.000193588681
153    -0.000205148405
154    -0.00013716072
155    1.86576286e-15
156    0.000642462573
157    -0.000558771615
158    -0.000372005405
159    1.66043611e-15
160    -0.000265514409
161    0.000229410063
162    0.000115260063
163    2.55055012e-15
164    -0.000368376528
165    -7.03692588e-05
166    -0.000188537266
167    1.19679655e-14
168    -0.00221783468
169    0.000593408047
170    6.50713094e-05
171    -7.4625184e-15
172    0.000256684813
173    -2.34853406e-16
174    -0.000114610904
175    -3.98748952e-16
176    0.00011400187
177    -2.78066531e-07
178    -1.93280036e-06
179    -1.09041743e-05
180    -3.19746701e-05
181    -0.000125956145
182    -0.00026228994
183    -4.59393348e-05
184    4.47981059e-05
185    -3.8690029e-05
186    -7.74536607e-17
187    0.000570597501
188    0.000694530883
189    -0.000329243731
190    4.56583647e-15
191    5.22575708e-05
192    -0.000162137181
193    -0.000157535056
194    -5.1819388e-15
195    -0.00125070923
196    -0.00101568413
197    -1.78514536e-05
198    2.62879807e-14
199    0.000436347253
200    0.000652426964
201    9.1146526e-05
202    1.31071843e-14
203    -0.000268491528
204    -8.70180759e-17
205    -0.000123797054
206    7.86564453e-16
207    0.000216154534
208    1.49944233e-09
209    5.01702645e-08
210    -3.26121437e-08
211    9.62745612e-07
212    -7.43465401e-06
213    -3.61649057e-05
214    2.36250289e-05
215    -7.1183531e-06
216    -1.59649746e-06
217    -1.66859063e-15
218    7.02358892e-05
219    2.80571163e-05
220    9.18898368e-06
221    -3.08621595e-16
222    -1.02843966e-05
223    -2.58439181e-05
224    3.64435164e-05
225    -5.68458018e-15
226    0.000117456441
227    0.000457401318
228    7.84024672e-05
229    9.63434892e-15
230    0.000736424138
231    -2.23874088e-05
232    0.000352491763
233    4.45373629e-14
234    -9.42568967e-06
235    2.36328398e-16
236    -3.96019962e-06
237    1.30161441e-16
238    -3.50300377e-06
239    4.01594622e-06
240    3.1048615e-05
241    0.000155092243
242    0.000531102147
243    0.00126101911
244    0.00042366549
245    0.00163766735
246    -1.87485679e-06
247    8.98377338e-05
248    1.2985528e-15
249    0.000297890709
250    7.40799235e-05
251    0.000488988543
252    2.39880603e-15
253    -0.000195421536
254    4.8623351e-05
255    -0.000271598637
256    1.10305188e-15
257    0.00603020505
258    -0.000265662004
259    0.00143221678
260    2.99763044e-14
261    0.000623404767
262    9.87383573e-05
263    0.000365909413
264    3.2429499e-14
265    3.53829806e-05
266    7.68342464e-16
267    -2.2285022e-05
268    1.44594521e-17
269    -0.000283323133
270    2.56976879e-05
271    9.18451487e-05
272    -0.000179156733
273    0.000267996343
274    -3.6987154e-05
275    7.23711506e-05
276    5.04479595e-16
[5D]