[Molden Format]
[Atoms] (Angs)
  C      1    6     -0.00714236     -1.70213747     -0.00000000
  H      2    1     -2.06882847     -1.44022412      0.00000000
  H      3    1     -0.12337987     -2.77567521      0.00000000
  H      4    1      0.04651892      1.98813947     -0.00000000
  C      5    6     -1.21953563      0.40211669      0.00000000
  O      6    8     -2.25921553      1.03043814      0.00000000
  C      7    6      1.28797806      0.34644937     -0.00000000
  O      8    8      2.31273661      1.00537216     -0.00000000
  N      9    7      0.03446295      0.97739857     -0.00000000
  N     10    7     -1.17287765     -0.98229824      0.00000000
  C     11    6      1.20107039     -1.10433419     -0.00000000
  H     12    1      2.11220096     -1.67699125     -0.00000000
[GTO]
1    0
S    1    1.000000
   4.56324000E+03    1.96665000E-03 
S    1    1.000000
   6.82024000E+02    1.52306000E-02 
S    1    1.000000
   1.54973000E+02    7.61269000E-02 
S    1    1.000000
   4.44553000E+01    2.60801000E-01 
S    1    1.000000
   1.30290000E+01    6.16462000E-01 
S    1    1.000000
   1.82773000E+00    2.21006000E-01 
SP   3    1.000000
   2.09642000E+01    1.14660000E-01   4.02487000E-02 
   4.80331000E+00    9.19999000E-01   2.37594000E-01 
   1.45933000E+00   -3.03068000E-03   8.15854000E-01 
SP   1    1.000000
   4.83456000E-01    1.00000000E+00   1.00000000E+00 
SP   1    1.000000
   1.45585000E-01    1.00000000E+00   1.00000000E+00 
SP   1    1.000000
   4.38000000E-02    1.00000000E+00   1.00000000E+00 
SP   1    1.000000
   1.31927711E-02    1.00000000E+00   1.00000000E+00 
D    1    1.000000
   6.26000000E-01    1.00000000E+00 

2    0
S    3    1.000000
   3.38650000E+01    2.54938000E-02 
   5.09479000E+00    1.90373000E-01 
   1.15879000E+00    8.52161000E-01 
S    1    1.000000
   3.25840000E-01    1.00000000E+00 
S    1    1.000000
   1.02741000E-01    1.00000000E+00 
S    1    1.000000
   3.60000000E-02    1.00000000E+00 
P    1    1.000000
   7.50000000E-01    1.00000000E+00 

3    0
S    3    1.000000
   3.38650000E+01    2.54938000E-02 
   5.09479000E+00    1.90373000E-01 
   1.15879000E+00    8.52161000E-01 
S    1    1.000000
   3.25840000E-01    1.00000000E+00 
S    1    1.000000
   1.02741000E-01    1.00000000E+00 
S    1    1.000000
   3.60000000E-02    1.00000000E+00 
P    1    1.000000
   7.50000000E-01    1.00000000E+00 

4    0
S    3    1.000000
   3.38650000E+01    2.54938000E-02 
   5.09479000E+00    1.90373000E-01 
   1.15879000E+00    8.52161000E-01 
S    1    1.000000
   3.25840000E-01    1.00000000E+00 
S    1    1.000000
   1.02741000E-01    1.00000000E+00 
S    1    1.000000
   3.60000000E-02    1.00000000E+00 
P    1    1.000000
   7.50000000E-01    1.00000000E+00 

5    0
S    1    1.000000
   4.56324000E+03    1.96665000E-03 
S    1    1.000000
   6.82024000E+02    1.52306000E-02 
S    1    1.000000
   1.54973000E+02    7.61269000E-02 
S    1    1.000000
   4.44553000E+01    2.60801000E-01 
S    1    1.000000
   1.30290000E+01    6.16462000E-01 
S    1    1.000000
   1.82773000E+00    2.21006000E-01 
SP   3    1.000000
   2.09642000E+01    1.14660000E-01   4.02487000E-02 
   4.80331000E+00    9.19999000E-01   2.37594000E-01 
   1.45933000E+00   -3.03068000E-03   8.15854000E-01 
SP   1    1.000000
   4.83456000E-01    1.00000000E+00   1.00000000E+00 
SP   1    1.000000
   1.45585000E-01    1.00000000E+00   1.00000000E+00 
SP   1    1.000000
   4.38000000E-02    1.00000000E+00   1.00000000E+00 
SP   1    1.000000
   1.31927711E-02    1.00000000E+00   1.00000000E+00 
D    1    1.000000
   6.26000000E-01    1.00000000E+00 

6    0
S    1    1.000000
   8.58850000E+03    1.89515000E-03 
S    1    1.000000
   1.29723000E+03    1.43859000E-02 
S    1    1.000000
   2.99296000E+02    7.07320000E-02 
S    1    1.000000
   8.73771000E+01    2.40001000E-01 
S    1    1.000000
   2.56789000E+01    5.94797000E-01 
S    1    1.000000
   3.74004000E+00    2.80802000E-01 
SP   3    1.000000
   4.21175000E+01    1.13889000E-01   3.65114000E-02 
   9.62837000E+00    9.20811000E-01   2.37153000E-01 
   2.85332000E+00   -3.27447000E-03   8.19702000E-01 
SP   1    1.000000
   9.05661000E-01    1.00000000E+00   1.00000000E+00 
SP   1    1.000000
   2.55611000E-01    1.00000000E+00   1.00000000E+00 
SP   1    1.000000
   8.45000000E-02    1.00000000E+00   1.00000000E+00 
SP   1    1.000000
   2.54518072E-02    1.00000000E+00   1.00000000E+00 
D    1    1.000000
   1.29200000E+00    1.00000000E+00 

7    0
S    1    1.000000
   4.56324000E+03    1.96665000E-03 
S    1    1.000000
   6.82024000E+02    1.52306000E-02 
S    1    1.000000
   1.54973000E+02    7.61269000E-02 
S    1    1.000000
   4.44553000E+01    2.60801000E-01 
S    1    1.000000
   1.30290000E+01    6.16462000E-01 
S    1    1.000000
   1.82773000E+00    2.21006000E-01 
SP   3    1.000000
   2.09642000E+01    1.14660000E-01   4.02487000E-02 
   4.80331000E+00    9.19999000E-01   2.37594000E-01 
   1.45933000E+00   -3.03068000E-03   8.15854000E-01 
SP   1    1.000000
   4.83456000E-01    1.00000000E+00   1.00000000E+00 
SP   1    1.000000
   1.45585000E-01    1.00000000E+00   1.00000000E+00 
SP   1    1.000000
   4.38000000E-02    1.00000000E+00   1.00000000E+00 
SP   1    1.000000
   1.31927711E-02    1.00000000E+00   1.00000000E+00 
D    1    1.000000
   6.26000000E-01    1.00000000E+00 

8    0
S    1    1.000000
   8.58850000E+03    1.89515000E-03 
S    1    1.000000
   1.29723000E+03    1.43859000E-02 
S    1    1.000000
   2.99296000E+02    7.07320000E-02 
S    1    1.000000
   8.73771000E+01    2.40001000E-01 
S    1    1.000000
   2.56789000E+01    5.94797000E-01 
S    1    1.000000
   3.74004000E+00    2.80802000E-01 
SP   3    1.000000
   4.21175000E+01    1.13889000E-01   3.65114000E-02 
   9.62837000E+00    9.20811000E-01   2.37153000E-01 
   2.85332000E+00   -3.27447000E-03   8.19702000E-01 
SP   1    1.000000
   9.05661000E-01    1.00000000E+00   1.00000000E+00 
SP   1    1.000000
   2.55611000E-01    1.00000000E+00   1.00000000E+00 
SP   1    1.000000
   8.45000000E-02    1.00000000E+00   1.00000000E+00 
SP   1    1.000000
   2.54518072E-02    1.00000000E+00   1.00000000E+00 
D    1    1.000000
   1.29200000E+00    1.00000000E+00 

9    0
S    1    1.000000
   6.29348000E+03    1.96979000E-03 
S    1    1.000000
   9.49044000E+02    1.49613000E-02 
S    1    1.000000
   2.18776000E+02    7.35006000E-02 
S    1    1.000000
   6.36916000E+01    2.48937000E-01 
S    1    1.000000
   1.88282000E+01    6.02460000E-01 
S    1    1.000000
   2.72023000E+00    2.56202000E-01 
SP   3    1.000000
   3.06331000E+01    1.11906000E-01   3.83119000E-02 
   7.02614000E+00    9.21666000E-01   2.37403000E-01 
   2.11205000E+00   -2.56919000E-03   8.17592000E-01 
SP   1    1.000000
   6.84009000E-01    1.00000000E+00   1.00000000E+00 
SP   1    1.000000
   2.00878000E-01    1.00000000E+00   1.00000000E+00 
SP   1    1.000000
   6.39000000E-02    1.00000000E+00   1.00000000E+00 
SP   1    1.000000
   1.92469880E-02    1.00000000E+00   1.00000000E+00 
D    1    1.000000
   9.13000000E-01    1.00000000E+00 

10    0
S    1    1.000000
   6.29348000E+03    1.96979000E-03 
S    1    1.000000
   9.49044000E+02    1.49613000E-02 
S    1    1.000000
   2.18776000E+02    7.35006000E-02 
S    1    1.000000
   6.36916000E+01    2.48937000E-01 
S    1    1.000000
   1.88282000E+01    6.02460000E-01 
S    1    1.000000
   2.72023000E+00    2.56202000E-01 
SP   3    1.000000
   3.06331000E+01    1.11906000E-01   3.83119000E-02 
   7.02614000E+00    9.21666000E-01   2.37403000E-01 
   2.11205000E+00   -2.56919000E-03   8.17592000E-01 
SP   1    1.000000
   6.84009000E-01    1.00000000E+00   1.00000000E+00 
SP   1    1.000000
   2.00878000E-01    1.00000000E+00   1.00000000E+00 
SP   1    1.000000
   6.39000000E-02    1.00000000E+00   1.00000000E+00 
SP   1    1.000000
   1.92469880E-02    1.00000000E+00   1.00000000E+00 
D    1    1.000000
   9.13000000E-01    1.00000000E+00 

11    0
S    1    1.000000
   4.56324000E+03    1.96665000E-03 
S    1    1.000000
   6.82024000E+02    1.52306000E-02 
S    1    1.000000
   1.54973000E+02    7.61269000E-02 
S    1    1.000000
   4.44553000E+01    2.60801000E-01 
S    1    1.000000
   1.30290000E+01    6.16462000E-01 
S    1    1.000000
   1.82773000E+00    2.21006000E-01 
SP   3    1.000000
   2.09642000E+01    1.14660000E-01   4.02487000E-02 
   4.80331000E+00    9.19999000E-01   2.37594000E-01 
   1.45933000E+00   -3.03068000E-03   8.15854000E-01 
SP   1    1.000000
   4.83456000E-01    1.00000000E+00   1.00000000E+00 
SP   1    1.000000
   1.45585000E-01    1.00000000E+00   1.00000000E+00 
SP   1    1.000000
   4.38000000E-02    1.00000000E+00   1.00000000E+00 
SP   1    1.000000
   1.31927711E-02    1.00000000E+00   1.00000000E+00 
D    1    1.000000
   6.26000000E-01    1.00000000E+00 

12    0
S    3    1.000000
   3.38650000E+01    2.54938000E-02 
   5.09479000E+00    1.90373000E-01 
   1.15879000E+00    8.52161000E-01 
S    1    1.000000
   3.25840000E-01    1.00000000E+00 
S    1    1.000000
   1.02741000E-01    1.00000000E+00 
S    1    1.000000
   3.60000000E-02    1.00000000E+00 
P    1    1.000000
   7.50000000E-01    1.00000000E+00 

[MO]
Sym=X
Ene=0.946452
Spin=Alpha
Occup=1
1    1.3238517e-05
2    0.000102566956
3    0.000511225553
4    0.00175765891
5    0.00413360696
6    0.00154701036
7    0.0056533665
8    -0.000148840515
9    -7.18510022e-05
10    -4.38286365e-16
11    -0.000484978768
12    -0.000547471452
13    -0.000299136968
14    1.44507699e-15
15    0.00101272256
16    0.000285096907
17    0.000624580024
18    7.069902e-16
19    0.00257371047
20    0.000126212186
21    0.00137446039
22    -5.83858657e-14
23    0.000219540461
24    -1.48135622e-06
25    0.000257737612
26    6.9296898e-14
27    -0.000292050526
28    2.9914461e-16
29    2.01063352e-05
30    7.84001234e-16
31    -0.000208542423
32    -6.6716972e-06
33    -5.67538003e-05
34    -9.60391489e-05
35    -0.000313170224
36    -1.47587731e-05
37    4.88884105e-06
38    -1.44129902e-15
39    -2.44858567e-05
40    -6.08856687e-05
41    0.000412780322
42    0.000691443687
43    -5.79715811e-05
44    -6.47010655e-05
45    -1.68271668e-17
46    -1.2638407e-05
47    -4.00413254e-05
48    -2.33462219e-05
49    -0.000253574442
50    -5.81033161e-06
51    4.57948672e-06
52    1.11337942e-15
53    -5.07908772e-08
54    -4.18047491e-07
55    -1.90607312e-06
56    -7.24204512e-06
57    -1.05637179e-05
58    2.15490108e-05
59    -3.71661674e-05
60    3.87236879e-06
61    -4.09523034e-06
62    -2.01817505e-15
63    -7.16059007e-05
64    -9.79165576e-06
65    1.45757951e-05
66    -1.73322145e-16
67    0.000607386496
68    0.000480927043
69    -0.000261055695
70    -5.45723428e-15
71    -8.01364341e-05
72    0.000203864237
73    9.12815588e-05
74    -8.15446839e-14
75    -8.22932689e-05
76    7.20076122e-05
77    -4.58373248e-05
78    -6.32328076e-14
79    -3.67914094e-06
80    5.06625586e-16
81    -9.4784947e-06
82    1.20875976e-15
83    -1.6409234e-06
84    5.59112072e-10
85    -3.72084769e-09
86    3.91920516e-08
87    -8.13020666e-08
88    1.91002988e-06
89    8.0315568e-06
90    -4.66867186e-06
91    2.58205768e-06
92    -6.76766624e-07
93    -8.15090441e-16
94    -2.08818028e-05
95    -1.3081703e-05
96    4.94263249e-06
97    -2.60003175e-15
98    9.70191864e-05
99    4.62836226e-05
100    -2.49213777e-05
101    -3.54434949e-15
102    0.000546042584
103    0.000131257825
104    -8.61091425e-05
105    3.68026762e-15
106    0.000109536059
107    -5.54675388e-05
108    -0.000107636304
109    2.74470391e-14
110    3.95374604e-07
111    2.25435192e-16
112    -1.18004379e-06
113    -4.62787203e-16
114    -1.19776661e-06
115    4.52470607e-06
116    3.5001765e-05
117    0.000174901633
118    0.000599992611
119    0.00142957131
120    0.000646997284
121    0.00190467325
122    3.77776606e-06
123    8.16132265e-05
124    4.26040465e-15
125    -0.000548159064
126    3.85292481e-05
127    0.000634015703
128    3.8224961e-15
129    0.000617694701
130    -0.000522432988
131    -0.000917942895
132    1.40285818e-14
133    0.00186521994
134    -0.000785463781
135    -0.00105412036
136    -7.11150886e-14
137    0.000309474933
138    7.00381896e-05
139    -1.82683589e-06
140    4.44701591e-14
141    -5.72896097e-05
142    3.17695515e-16
143    7.16689099e-05
144    3.91261742e-16
145    0.000352680311
146    -6.06428797e-09
147    -8.22373563e-08
148    -1.48024423e-07
149    -1.46511095e-06
150    6.08699001e-06
151    3.51083162e-05
152    -2.76165737e-05
153    -8.35022232e-06
154    -2.39931676e-05
155    2.02108341e-15
156    -7.14820031e-05
157    4.3093151e-05
158    4.16214896e-05
159    5.70271451e-15
160    0.000196898619
161    -0.000125718684
162    -1.50005619e-06
163    3.11886806e-15
164    0.000837863199
165    -0.000119117411
166    -4.88284488e-05
167    1.58872164e-14
168    0.00182044127
169    -0.000361863583
170    -0.000103858992
171    3.05436205e-15
172    -2.7373779e-05
173    -6.59752901e-16
174    1.20411933e-06
175    -6.73574819e-16
176    2.53197705e-05
177    -8.43722459e-09
178    -1.07782724e-07
179    -2.20111886e-07
180    -1.9398086e-06
181    6.51473758e-06
182    4.1118919e-05
183    -3.23200692e-05
184    2.41267025e-05
185    -1.42290855e-05
186    -1.12866051e-15
187    -4.80150797e-05
188    -8.61537495e-05
189    3.70127104e-05
190    7.00432231e-15
191    -0.000289237883
192    0.000195270269
193    0.000220932766
194    -1.52239795e-14
195    -0.000660687942
196    0.000253867345
197    0.000297649901
198    6.18451949e-14
199    -0.000721385573
200    -0.000591816902
201    0.000194592112
202    4.31611153e-14
203    3.40600478e-05
204    -2.63353202e-16
205    4.2278932e-06
206    7.73128534e-16
207    -1.58224368e-05
208    -1.2372718e-08
209    -1.41083713e-07
210    -3.59393852e-07
211    -2.51198665e-06
212    5.84403531e-06
213    4.17440497e-05
214    -3.55166271e-05
215    2.75142311e-05
216    -9.02925144e-06
217    -3.18738177e-15
218    -5.07982325e-05
219    -8.72732159e-05
220    3.78492689e-05
221    2.48169184e-15
222    -0.00030192393
223    -0.000155838099
224    -0.000188485398
225    -1.59565842e-14
226    -0.000998357788
227    -0.000423520368
228    -0.000261902637
229    5.29600213e-14
230    -0.000570796211
231    -4.92520795e-05
232    -0.000224238373
233    1.21780993e-14
234    2.29375508e-05
235    -2.59789746e-17
236    1.02400767e-05
237    2.37541251e-16
238    -3.8265334e-05
239    -0.00110905878
240    -0.00858604606
241    -0.0428297426
242    -0.147055426
243    -0.347374226
244    -0.127043091
245    -0.465000226
246    0.00018036207
247    -0.00023242466
248    6.69074013e-16
249    -0.00182143211
250    3.8768519e-05
251    0.00014835399
252    6.14965385e-15
253    -0.00186964938
254    0.000801678582
255    -0.000609533912
256    -4.92161753e-15
257    -0.00460203775
258    0.00101483886
259    -0.00101708952
260    7.93746425e-14
261    -0.000265647413
262    -9.75032388e-05
263    -0.000223463634
264    -7.85939654e-14
265    -6.52952846e-05
266    6.2165676e-16
267    9.58429061e-05
268    2.42492899e-16
269    -8.32309507e-05
270    -0.00037809966
271    -0.000450185861
272    -0.000289098605
273    -0.000474433038
274    0.000265484886
275    -0.00015333488
276    1.02190867e-15
[5D]