[Molden Format]
[Atoms] (Angs)
  C      1    6     -0.00714236     -1.70213747     -0.00000000
  H      2    1     -2.06882847     -1.44022412      0.00000000
  H      3    1     -0.12337987     -2.77567521      0.00000000
  H      4    1      0.04651892      1.98813947     -0.00000000
  C      5    6     -1.21953563      0.40211669      0.00000000
  O      6    8     -2.25921553      1.03043814      0.00000000
  C      7    6      1.28797806      0.34644937     -0.00000000
  O      8    8      2.31273661      1.00537216     -0.00000000
  N      9    7      0.03446295      0.97739857     -0.00000000
  N     10    7     -1.17287765     -0.98229824      0.00000000
  C     11    6      1.20107039     -1.10433419     -0.00000000
  H     12    1      2.11220096     -1.67699125     -0.00000000
[GTO]
1    0
S    1    1.000000
   4.56324000E+03    1.96665000E-03 
S    1    1.000000
   6.82024000E+02    1.52306000E-02 
S    1    1.000000
   1.54973000E+02    7.61269000E-02 
S    1    1.000000
   4.44553000E+01    2.60801000E-01 
S    1    1.000000
   1.30290000E+01    6.16462000E-01 
S    1    1.000000
   1.82773000E+00    2.21006000E-01 
SP   3    1.000000
   2.09642000E+01    1.14660000E-01   4.02487000E-02 
   4.80331000E+00    9.19999000E-01   2.37594000E-01 
   1.45933000E+00   -3.03068000E-03   8.15854000E-01 
SP   1    1.000000
   4.83456000E-01    1.00000000E+00   1.00000000E+00 
SP   1    1.000000
   1.45585000E-01    1.00000000E+00   1.00000000E+00 
SP   1    1.000000
   4.38000000E-02    1.00000000E+00   1.00000000E+00 
SP   1    1.000000
   1.31927711E-02    1.00000000E+00   1.00000000E+00 
D    1    1.000000
   6.26000000E-01    1.00000000E+00 

2    0
S    3    1.000000
   3.38650000E+01    2.54938000E-02 
   5.09479000E+00    1.90373000E-01 
   1.15879000E+00    8.52161000E-01 
S    1    1.000000
   3.25840000E-01    1.00000000E+00 
S    1    1.000000
   1.02741000E-01    1.00000000E+00 
S    1    1.000000
   3.60000000E-02    1.00000000E+00 
P    1    1.000000
   7.50000000E-01    1.00000000E+00 

3    0
S    3    1.000000
   3.38650000E+01    2.54938000E-02 
   5.09479000E+00    1.90373000E-01 
   1.15879000E+00    8.52161000E-01 
S    1    1.000000
   3.25840000E-01    1.00000000E+00 
S    1    1.000000
   1.02741000E-01    1.00000000E+00 
S    1    1.000000
   3.60000000E-02    1.00000000E+00 
P    1    1.000000
   7.50000000E-01    1.00000000E+00 

4    0
S    3    1.000000
   3.38650000E+01    2.54938000E-02 
   5.09479000E+00    1.90373000E-01 
   1.15879000E+00    8.52161000E-01 
S    1    1.000000
   3.25840000E-01    1.00000000E+00 
S    1    1.000000
   1.02741000E-01    1.00000000E+00 
S    1    1.000000
   3.60000000E-02    1.00000000E+00 
P    1    1.000000
   7.50000000E-01    1.00000000E+00 

5    0
S    1    1.000000
   4.56324000E+03    1.96665000E-03 
S    1    1.000000
   6.82024000E+02    1.52306000E-02 
S    1    1.000000
   1.54973000E+02    7.61269000E-02 
S    1    1.000000
   4.44553000E+01    2.60801000E-01 
S    1    1.000000
   1.30290000E+01    6.16462000E-01 
S    1    1.000000
   1.82773000E+00    2.21006000E-01 
SP   3    1.000000
   2.09642000E+01    1.14660000E-01   4.02487000E-02 
   4.80331000E+00    9.19999000E-01   2.37594000E-01 
   1.45933000E+00   -3.03068000E-03   8.15854000E-01 
SP   1    1.000000
   4.83456000E-01    1.00000000E+00   1.00000000E+00 
SP   1    1.000000
   1.45585000E-01    1.00000000E+00   1.00000000E+00 
SP   1    1.000000
   4.38000000E-02    1.00000000E+00   1.00000000E+00 
SP   1    1.000000
   1.31927711E-02    1.00000000E+00   1.00000000E+00 
D    1    1.000000
   6.26000000E-01    1.00000000E+00 

6    0
S    1    1.000000
   8.58850000E+03    1.89515000E-03 
S    1    1.000000
   1.29723000E+03    1.43859000E-02 
S    1    1.000000
   2.99296000E+02    7.07320000E-02 
S    1    1.000000
   8.73771000E+01    2.40001000E-01 
S    1    1.000000
   2.56789000E+01    5.94797000E-01 
S    1    1.000000
   3.74004000E+00    2.80802000E-01 
SP   3    1.000000
   4.21175000E+01    1.13889000E-01   3.65114000E-02 
   9.62837000E+00    9.20811000E-01   2.37153000E-01 
   2.85332000E+00   -3.27447000E-03   8.19702000E-01 
SP   1    1.000000
   9.05661000E-01    1.00000000E+00   1.00000000E+00 
SP   1    1.000000
   2.55611000E-01    1.00000000E+00   1.00000000E+00 
SP   1    1.000000
   8.45000000E-02    1.00000000E+00   1.00000000E+00 
SP   1    1.000000
   2.54518072E-02    1.00000000E+00   1.00000000E+00 
D    1    1.000000
   1.29200000E+00    1.00000000E+00 

7    0
S    1    1.000000
   4.56324000E+03    1.96665000E-03 
S    1    1.000000
   6.82024000E+02    1.52306000E-02 
S    1    1.000000
   1.54973000E+02    7.61269000E-02 
S    1    1.000000
   4.44553000E+01    2.60801000E-01 
S    1    1.000000
   1.30290000E+01    6.16462000E-01 
S    1    1.000000
   1.82773000E+00    2.21006000E-01 
SP   3    1.000000
   2.09642000E+01    1.14660000E-01   4.02487000E-02 
   4.80331000E+00    9.19999000E-01   2.37594000E-01 
   1.45933000E+00   -3.03068000E-03   8.15854000E-01 
SP   1    1.000000
   4.83456000E-01    1.00000000E+00   1.00000000E+00 
SP   1    1.000000
   1.45585000E-01    1.00000000E+00   1.00000000E+00 
SP   1    1.000000
   4.38000000E-02    1.00000000E+00   1.00000000E+00 
SP   1    1.000000
   1.31927711E-02    1.00000000E+00   1.00000000E+00 
D    1    1.000000
   6.26000000E-01    1.00000000E+00 

8    0
S    1    1.000000
   8.58850000E+03    1.89515000E-03 
S    1    1.000000
   1.29723000E+03    1.43859000E-02 
S    1    1.000000
   2.99296000E+02    7.07320000E-02 
S    1    1.000000
   8.73771000E+01    2.40001000E-01 
S    1    1.000000
   2.56789000E+01    5.94797000E-01 
S    1    1.000000
   3.74004000E+00    2.80802000E-01 
SP   3    1.000000
   4.21175000E+01    1.13889000E-01   3.65114000E-02 
   9.62837000E+00    9.20811000E-01   2.37153000E-01 
   2.85332000E+00   -3.27447000E-03   8.19702000E-01 
SP   1    1.000000
   9.05661000E-01    1.00000000E+00   1.00000000E+00 
SP   1    1.000000
   2.55611000E-01    1.00000000E+00   1.00000000E+00 
SP   1    1.000000
   8.45000000E-02    1.00000000E+00   1.00000000E+00 
SP   1    1.000000
   2.54518072E-02    1.00000000E+00   1.00000000E+00 
D    1    1.000000
   1.29200000E+00    1.00000000E+00 

9    0
S    1    1.000000
   6.29348000E+03    1.96979000E-03 
S    1    1.000000
   9.49044000E+02    1.49613000E-02 
S    1    1.000000
   2.18776000E+02    7.35006000E-02 
S    1    1.000000
   6.36916000E+01    2.48937000E-01 
S    1    1.000000
   1.88282000E+01    6.02460000E-01 
S    1    1.000000
   2.72023000E+00    2.56202000E-01 
SP   3    1.000000
   3.06331000E+01    1.11906000E-01   3.83119000E-02 
   7.02614000E+00    9.21666000E-01   2.37403000E-01 
   2.11205000E+00   -2.56919000E-03   8.17592000E-01 
SP   1    1.000000
   6.84009000E-01    1.00000000E+00   1.00000000E+00 
SP   1    1.000000
   2.00878000E-01    1.00000000E+00   1.00000000E+00 
SP   1    1.000000
   6.39000000E-02    1.00000000E+00   1.00000000E+00 
SP   1    1.000000
   1.92469880E-02    1.00000000E+00   1.00000000E+00 
D    1    1.000000
   9.13000000E-01    1.00000000E+00 

10    0
S    1    1.000000
   6.29348000E+03    1.96979000E-03 
S    1    1.000000
   9.49044000E+02    1.49613000E-02 
S    1    1.000000
   2.18776000E+02    7.35006000E-02 
S    1    1.000000
   6.36916000E+01    2.48937000E-01 
S    1    1.000000
   1.88282000E+01    6.02460000E-01 
S    1    1.000000
   2.72023000E+00    2.56202000E-01 
SP   3    1.000000
   3.06331000E+01    1.11906000E-01   3.83119000E-02 
   7.02614000E+00    9.21666000E-01   2.37403000E-01 
   2.11205000E+00   -2.56919000E-03   8.17592000E-01 
SP   1    1.000000
   6.84009000E-01    1.00000000E+00   1.00000000E+00 
SP   1    1.000000
   2.00878000E-01    1.00000000E+00   1.00000000E+00 
SP   1    1.000000
   6.39000000E-02    1.00000000E+00   1.00000000E+00 
SP   1    1.000000
   1.92469880E-02    1.00000000E+00   1.00000000E+00 
D    1    1.000000
   9.13000000E-01    1.00000000E+00 

11    0
S    1    1.000000
   4.56324000E+03    1.96665000E-03 
S    1    1.000000
   6.82024000E+02    1.52306000E-02 
S    1    1.000000
   1.54973000E+02    7.61269000E-02 
S    1    1.000000
   4.44553000E+01    2.60801000E-01 
S    1    1.000000
   1.30290000E+01    6.16462000E-01 
S    1    1.000000
   1.82773000E+00    2.21006000E-01 
SP   3    1.000000
   2.09642000E+01    1.14660000E-01   4.02487000E-02 
   4.80331000E+00    9.19999000E-01   2.37594000E-01 
   1.45933000E+00   -3.03068000E-03   8.15854000E-01 
SP   1    1.000000
   4.83456000E-01    1.00000000E+00   1.00000000E+00 
SP   1    1.000000
   1.45585000E-01    1.00000000E+00   1.00000000E+00 
SP   1    1.000000
   4.38000000E-02    1.00000000E+00   1.00000000E+00 
SP   1    1.000000
   1.31927711E-02    1.00000000E+00   1.00000000E+00 
D    1    1.000000
   6.26000000E-01    1.00000000E+00 

12    0
S    3    1.000000
   3.38650000E+01    2.54938000E-02 
   5.09479000E+00    1.90373000E-01 
   1.15879000E+00    8.52161000E-01 
S    1    1.000000
   3.25840000E-01    1.00000000E+00 
S    1    1.000000
   1.02741000E-01    1.00000000E+00 
S    1    1.000000
   3.60000000E-02    1.00000000E+00 
P    1    1.000000
   7.50000000E-01    1.00000000E+00 

[MO]
Sym=X
Ene=0.067523
Spin=Alpha
Occup=1
1    -0.00110889084
2    -0.00858462483
3    -0.0428236851
4    -0.147027498
5    -0.34732272
6    -0.12665136
7    -0.46511181
8    0.00111703907
9    -0.000313324647
10    8.84575073e-16
11    -0.00166136619
12    -0.00105163039
13    7.030854e-05
14    -2.36891443e-15
15    -0.00149765088
16    0.000297028753
17    -0.00087089843
18    8.54188537e-15
19    -0.000950313844
20    0.00070058837
21    -0.000591866384
22    -8.57358325e-14
23    0.000147519379
24    -7.55612062e-05
25    2.603066e-05
26    6.22220533e-14
27    -0.000359120727
28    3.16897296e-16
29    0.000237010292
30    -9.8188732e-17
31    -8.51350274e-05
32    -2.8724476e-05
33    -4.98388219e-05
34    -3.593239e-05
35    0.000106598753
36    -4.62899444e-05
37    -1.55165686e-05
38    2.77218607e-16
39    -0.000379439001
40    -0.000462596694
41    -0.000248261228
42    -0.000153090313
43    -4.06011507e-05
44    -0.000306482985
45    1.37077312e-16
46    -1.24255563e-05
47    5.75483865e-05
48    -0.000241783131
49    -0.000246389773
50    -5.40303132e-06
51    -4.48144215e-06
52    -7.36705243e-16
53    -2.11455221e-06
54    -1.64009011e-05
55    -8.15970873e-05
56    -0.000280972774
57    -0.000654751107
58    -0.000194533875
59    -0.000911898645
60    3.89247539e-06
61    -2.04161728e-05
62    -2.20606755e-15
63    -0.000111113472
64    -1.76971093e-05
65    8.27691528e-05
66    -2.18707433e-16
67    -0.000246227938
68    0.000624954949
69    -0.000394435287
70    -4.65388575e-15
71    -0.000675763835
72    0.00031651711
73    -0.000578040289
74    -9.73376369e-14
75    -0.000500219901
76    -0.00017621809
77    -7.00411529e-06
78    -7.83208033e-14
79    1.86891162e-05
80    -5.15745613e-16
81    -3.34505293e-06
82    6.62087623e-16
83    4.39012123e-05
84    2.65323527e-09
85    -5.80262666e-09
86    1.59984738e-07
87    -1.59052384e-07
88    6.42652278e-06
89    2.5916959e-05
90    -1.40861342e-05
91    3.72055621e-06
92    -1.65854988e-06
93    -1.50435577e-15
94    -7.06779486e-05
95    -2.72449703e-05
96    2.64355042e-05
97    -1.40078008e-15
98    0.000303803888
99    0.000156926292
100    -8.71236064e-05
101    -6.75593025e-15
102    0.00101701236
103    0.000158871752
104    -0.000135573292
105    7.65770688e-15
106    0.0013541327
107    0.000276648973
108    -4.58630456e-05
109    2.60011386e-14
110    2.72980146e-06
111    7.67501799e-16
112    -4.7582318e-07
113    -4.62905581e-16
114    5.17117099e-06
115    -5.77644755e-06
116    -4.47696456e-05
117    -0.00022297037
118    -0.000766945751
119    -0.00179853488
120    -0.000605089876
121    -0.00245734612
122    -3.41154871e-06
123    -3.05818011e-05
124    -3.2422162e-16
125    -8.85380804e-05
126    2.57723715e-05
127    0.000103410914
128    -4.62391858e-16
129    -0.000240121896
130    0.000207482936
131    0.000144349621
132    3.88703552e-15
133    0.000107599431
134    -0.000234559595
135    -0.000217824605
136    -9.84834285e-14
137    -4.89821757e-05
138    -0.000191362043
139    7.22508174e-05
140    3.16358227e-14
141    -3.60389581e-05
142    1.43838799e-16
143    5.66488707e-06
144    3.34380704e-16
145    4.20506737e-05
146    4.48005607e-08
147    3.42725582e-07
148    1.66833409e-06
149    5.72566294e-06
150    1.36029734e-05
151    4.57405673e-06
152    2.23346939e-05
153    4.71171224e-07
154    -1.2965934e-06
155    -5.80881533e-16
156    6.2902616e-06
157    9.2872414e-06
158    2.13275057e-05
159    2.65932078e-15
160    -0.000112936997
161    1.66278476e-06
162    -9.69285399e-07
163    -7.1917466e-15
164    8.71683353e-05
165    9.31469003e-06
166    1.67125976e-05
167    1.88230726e-14
168    -5.43933567e-05
169    -6.68867354e-06
170    5.06527183e-05
171    -3.82634434e-15
172    -4.90928259e-06
173    9.12851055e-17
174    1.86456841e-06
175    2.93256831e-16
176    5.34670082e-06
177    -1.71238177e-07
178    -1.34335316e-06
179    -6.29687685e-06
180    -2.24705876e-05
181    -4.43851257e-05
182    1.45602131e-05
183    -9.58907133e-05
184    -8.82978696e-07
185    -7.33084586e-06
186    -2.35530104e-15
187    -7.32118017e-05
188    4.93726204e-06
189    3.16574803e-05
190    3.78715091e-15
191    -2.35946671e-05
192    4.36482137e-05
193    -2.65462722e-05
194    -1.95615785e-14
195    -5.98540969e-05
196    -0.000171621465
197    0.000534284698
198    6.58626012e-14
199    -0.000737522488
200    0.000308862698
201    0.00012097471
202    6.63493753e-14
203    -6.05199037e-06
204    2.41025894e-16
205    3.53294085e-06
206    3.81031646e-16
207    -7.37043648e-06
208    1.34675848e-06
209    1.00822952e-05
210    5.0759845e-05
211    0.000167657704
212    0.000451837477
213    0.00041326356
214    0.000510871243
215    -6.81526109e-05
216    4.07557439e-05
217    -2.86540908e-15
218    -0.000667658078
219    -0.000730080681
220    0.000441203075
221    6.67270158e-15
222    0.000101292365
223    2.11643279e-05
224    -7.70206767e-05
225    -2.211302e-14
226    0.0013457859
227    0.000462216341
228    -0.000361632949
229    6.79018073e-14
230    0.000594919377
231    0.000322072849
232    -5.14965752e-05
233    2.68976156e-14
234    0.00032763763
235    -5.53255585e-17
236    0.000130157208
237    -1.74310871e-16
238    -0.000181391318
239    3.18087474e-05
240    0.00024640893
241    0.00122818816
242    0.00422145898
243    0.00993259094
244    0.00355984652
245    0.0134838655
246    0.000145159113
247    7.94642978e-05
248    -3.23456567e-16
249    -0.000118312457
250    0.000237507675
251    9.91424785e-05
252    2.45113379e-15
253    0.000855082202
254    -0.000615842425
255    0.000283798474
256    -1.04950941e-14
257    -0.00102784473
258    -5.48235985e-06
259    0.000655270713
260    9.64706508e-14
261    0.000225606248
262    0.000172689704
263    0.000113827094
264    -6.54387028e-14
265    -0.000162190119
266    -4.80895101e-16
267    -5.35966067e-05
268    6.53221728e-16
269    -0.000145556879
270    -1.49048441e-05
271    -9.63922911e-06
272    0.000369022594
273    0.00029722574
274    7.79009675e-05
275    1.89148187e-05
276    6.32227434e-16
[5D]