[Molden Format]
[Atoms] (Angs)
  C      1    6     -0.00714236     -1.70213747     -0.00000000
  H      2    1     -2.06882847     -1.44022412      0.00000000
  H      3    1     -0.12337987     -2.77567521      0.00000000
  H      4    1      0.04651892      1.98813947     -0.00000000
  C      5    6     -1.21953563      0.40211669      0.00000000
  O      6    8     -2.25921553      1.03043814      0.00000000
  C      7    6      1.28797806      0.34644937     -0.00000000
  O      8    8      2.31273661      1.00537216     -0.00000000
  N      9    7      0.03446295      0.97739857     -0.00000000
  N     10    7     -1.17287765     -0.98229824      0.00000000
  C     11    6      1.20107039     -1.10433419     -0.00000000
  H     12    1      2.11220096     -1.67699125     -0.00000000
[GTO]
1    0
S    1    1.000000
   4.56324000E+03    1.96665000E-03 
S    1    1.000000
   6.82024000E+02    1.52306000E-02 
S    1    1.000000
   1.54973000E+02    7.61269000E-02 
S    1    1.000000
   4.44553000E+01    2.60801000E-01 
S    1    1.000000
   1.30290000E+01    6.16462000E-01 
S    1    1.000000
   1.82773000E+00    2.21006000E-01 
SP   3    1.000000
   2.09642000E+01    1.14660000E-01   4.02487000E-02 
   4.80331000E+00    9.19999000E-01   2.37594000E-01 
   1.45933000E+00   -3.03068000E-03   8.15854000E-01 
SP   1    1.000000
   4.83456000E-01    1.00000000E+00   1.00000000E+00 
SP   1    1.000000
   1.45585000E-01    1.00000000E+00   1.00000000E+00 
SP   1    1.000000
   4.38000000E-02    1.00000000E+00   1.00000000E+00 
SP   1    1.000000
   1.31927711E-02    1.00000000E+00   1.00000000E+00 
D    1    1.000000
   6.26000000E-01    1.00000000E+00 

2    0
S    3    1.000000
   3.38650000E+01    2.54938000E-02 
   5.09479000E+00    1.90373000E-01 
   1.15879000E+00    8.52161000E-01 
S    1    1.000000
   3.25840000E-01    1.00000000E+00 
S    1    1.000000
   1.02741000E-01    1.00000000E+00 
S    1    1.000000
   3.60000000E-02    1.00000000E+00 
P    1    1.000000
   7.50000000E-01    1.00000000E+00 

3    0
S    3    1.000000
   3.38650000E+01    2.54938000E-02 
   5.09479000E+00    1.90373000E-01 
   1.15879000E+00    8.52161000E-01 
S    1    1.000000
   3.25840000E-01    1.00000000E+00 
S    1    1.000000
   1.02741000E-01    1.00000000E+00 
S    1    1.000000
   3.60000000E-02    1.00000000E+00 
P    1    1.000000
   7.50000000E-01    1.00000000E+00 

4    0
S    3    1.000000
   3.38650000E+01    2.54938000E-02 
   5.09479000E+00    1.90373000E-01 
   1.15879000E+00    8.52161000E-01 
S    1    1.000000
   3.25840000E-01    1.00000000E+00 
S    1    1.000000
   1.02741000E-01    1.00000000E+00 
S    1    1.000000
   3.60000000E-02    1.00000000E+00 
P    1    1.000000
   7.50000000E-01    1.00000000E+00 

5    0
S    1    1.000000
   4.56324000E+03    1.96665000E-03 
S    1    1.000000
   6.82024000E+02    1.52306000E-02 
S    1    1.000000
   1.54973000E+02    7.61269000E-02 
S    1    1.000000
   4.44553000E+01    2.60801000E-01 
S    1    1.000000
   1.30290000E+01    6.16462000E-01 
S    1    1.000000
   1.82773000E+00    2.21006000E-01 
SP   3    1.000000
   2.09642000E+01    1.14660000E-01   4.02487000E-02 
   4.80331000E+00    9.19999000E-01   2.37594000E-01 
   1.45933000E+00   -3.03068000E-03   8.15854000E-01 
SP   1    1.000000
   4.83456000E-01    1.00000000E+00   1.00000000E+00 
SP   1    1.000000
   1.45585000E-01    1.00000000E+00   1.00000000E+00 
SP   1    1.000000
   4.38000000E-02    1.00000000E+00   1.00000000E+00 
SP   1    1.000000
   1.31927711E-02    1.00000000E+00   1.00000000E+00 
D    1    1.000000
   6.26000000E-01    1.00000000E+00 

6    0
S    1    1.000000
   8.58850000E+03    1.89515000E-03 
S    1    1.000000
   1.29723000E+03    1.43859000E-02 
S    1    1.000000
   2.99296000E+02    7.07320000E-02 
S    1    1.000000
   8.73771000E+01    2.40001000E-01 
S    1    1.000000
   2.56789000E+01    5.94797000E-01 
S    1    1.000000
   3.74004000E+00    2.80802000E-01 
SP   3    1.000000
   4.21175000E+01    1.13889000E-01   3.65114000E-02 
   9.62837000E+00    9.20811000E-01   2.37153000E-01 
   2.85332000E+00   -3.27447000E-03   8.19702000E-01 
SP   1    1.000000
   9.05661000E-01    1.00000000E+00   1.00000000E+00 
SP   1    1.000000
   2.55611000E-01    1.00000000E+00   1.00000000E+00 
SP   1    1.000000
   8.45000000E-02    1.00000000E+00   1.00000000E+00 
SP   1    1.000000
   2.54518072E-02    1.00000000E+00   1.00000000E+00 
D    1    1.000000
   1.29200000E+00    1.00000000E+00 

7    0
S    1    1.000000
   4.56324000E+03    1.96665000E-03 
S    1    1.000000
   6.82024000E+02    1.52306000E-02 
S    1    1.000000
   1.54973000E+02    7.61269000E-02 
S    1    1.000000
   4.44553000E+01    2.60801000E-01 
S    1    1.000000
   1.30290000E+01    6.16462000E-01 
S    1    1.000000
   1.82773000E+00    2.21006000E-01 
SP   3    1.000000
   2.09642000E+01    1.14660000E-01   4.02487000E-02 
   4.80331000E+00    9.19999000E-01   2.37594000E-01 
   1.45933000E+00   -3.03068000E-03   8.15854000E-01 
SP   1    1.000000
   4.83456000E-01    1.00000000E+00   1.00000000E+00 
SP   1    1.000000
   1.45585000E-01    1.00000000E+00   1.00000000E+00 
SP   1    1.000000
   4.38000000E-02    1.00000000E+00   1.00000000E+00 
SP   1    1.000000
   1.31927711E-02    1.00000000E+00   1.00000000E+00 
D    1    1.000000
   6.26000000E-01    1.00000000E+00 

8    0
S    1    1.000000
   8.58850000E+03    1.89515000E-03 
S    1    1.000000
   1.29723000E+03    1.43859000E-02 
S    1    1.000000
   2.99296000E+02    7.07320000E-02 
S    1    1.000000
   8.73771000E+01    2.40001000E-01 
S    1    1.000000
   2.56789000E+01    5.94797000E-01 
S    1    1.000000
   3.74004000E+00    2.80802000E-01 
SP   3    1.000000
   4.21175000E+01    1.13889000E-01   3.65114000E-02 
   9.62837000E+00    9.20811000E-01   2.37153000E-01 
   2.85332000E+00   -3.27447000E-03   8.19702000E-01 
SP   1    1.000000
   9.05661000E-01    1.00000000E+00   1.00000000E+00 
SP   1    1.000000
   2.55611000E-01    1.00000000E+00   1.00000000E+00 
SP   1    1.000000
   8.45000000E-02    1.00000000E+00   1.00000000E+00 
SP   1    1.000000
   2.54518072E-02    1.00000000E+00   1.00000000E+00 
D    1    1.000000
   1.29200000E+00    1.00000000E+00 

9    0
S    1    1.000000
   6.29348000E+03    1.96979000E-03 
S    1    1.000000
   9.49044000E+02    1.49613000E-02 
S    1    1.000000
   2.18776000E+02    7.35006000E-02 
S    1    1.000000
   6.36916000E+01    2.48937000E-01 
S    1    1.000000
   1.88282000E+01    6.02460000E-01 
S    1    1.000000
   2.72023000E+00    2.56202000E-01 
SP   3    1.000000
   3.06331000E+01    1.11906000E-01   3.83119000E-02 
   7.02614000E+00    9.21666000E-01   2.37403000E-01 
   2.11205000E+00   -2.56919000E-03   8.17592000E-01 
SP   1    1.000000
   6.84009000E-01    1.00000000E+00   1.00000000E+00 
SP   1    1.000000
   2.00878000E-01    1.00000000E+00   1.00000000E+00 
SP   1    1.000000
   6.39000000E-02    1.00000000E+00   1.00000000E+00 
SP   1    1.000000
   1.92469880E-02    1.00000000E+00   1.00000000E+00 
D    1    1.000000
   9.13000000E-01    1.00000000E+00 

10    0
S    1    1.000000
   6.29348000E+03    1.96979000E-03 
S    1    1.000000
   9.49044000E+02    1.49613000E-02 
S    1    1.000000
   2.18776000E+02    7.35006000E-02 
S    1    1.000000
   6.36916000E+01    2.48937000E-01 
S    1    1.000000
   1.88282000E+01    6.02460000E-01 
S    1    1.000000
   2.72023000E+00    2.56202000E-01 
SP   3    1.000000
   3.06331000E+01    1.11906000E-01   3.83119000E-02 
   7.02614000E+00    9.21666000E-01   2.37403000E-01 
   2.11205000E+00   -2.56919000E-03   8.17592000E-01 
SP   1    1.000000
   6.84009000E-01    1.00000000E+00   1.00000000E+00 
SP   1    1.000000
   2.00878000E-01    1.00000000E+00   1.00000000E+00 
SP   1    1.000000
   6.39000000E-02    1.00000000E+00   1.00000000E+00 
SP   1    1.000000
   1.92469880E-02    1.00000000E+00   1.00000000E+00 
D    1    1.000000
   9.13000000E-01    1.00000000E+00 

11    0
S    1    1.000000
   4.56324000E+03    1.96665000E-03 
S    1    1.000000
   6.82024000E+02    1.52306000E-02 
S    1    1.000000
   1.54973000E+02    7.61269000E-02 
S    1    1.000000
   4.44553000E+01    2.60801000E-01 
S    1    1.000000
   1.30290000E+01    6.16462000E-01 
S    1    1.000000
   1.82773000E+00    2.21006000E-01 
SP   3    1.000000
   2.09642000E+01    1.14660000E-01   4.02487000E-02 
   4.80331000E+00    9.19999000E-01   2.37594000E-01 
   1.45933000E+00   -3.03068000E-03   8.15854000E-01 
SP   1    1.000000
   4.83456000E-01    1.00000000E+00   1.00000000E+00 
SP   1    1.000000
   1.45585000E-01    1.00000000E+00   1.00000000E+00 
SP   1    1.000000
   4.38000000E-02    1.00000000E+00   1.00000000E+00 
SP   1    1.000000
   1.31927711E-02    1.00000000E+00   1.00000000E+00 
D    1    1.000000
   6.26000000E-01    1.00000000E+00 

12    0
S    3    1.000000
   3.38650000E+01    2.54938000E-02 
   5.09479000E+00    1.90373000E-01 
   1.15879000E+00    8.52161000E-01 
S    1    1.000000
   3.25840000E-01    1.00000000E+00 
S    1    1.000000
   1.02741000E-01    1.00000000E+00 
S    1    1.000000
   3.60000000E-02    1.00000000E+00 
P    1    1.000000
   7.50000000E-01    1.00000000E+00 

[MO]
Sym=X
Ene=0.954068
Spin=Alpha
Occup=1
1    -2.05121104e-07
2    -1.57764448e-06
3    -7.93975912e-06
4    -2.70091793e-05
5    -6.73669349e-05
6    -4.53952132e-05
7    -7.44253617e-05
8    1.55224928e-05
9    -7.89242859e-06
10    4.61571708e-16
11    5.12526311e-05
12    -7.87884985e-05
13    2.50346889e-05
14    2.37591233e-15
15    -0.000323480466
16    8.79609108e-05
17    -0.000143235813
18    -1.19775397e-16
19    0.00323547477
20    0.00049322424
21    0.00127913427
22    1.37430798e-14
23    0.000311257832
24    -0.000212478481
25    7.91399866e-05
26    4.94803488e-14
27    -5.59043758e-05
28    5.30263054e-16
29    1.6198813e-05
30    1.66169499e-17
31    -4.25286641e-07
32    3.2756368e-05
33    1.22704009e-05
34    2.62699137e-05
35    0.000106729397
36    3.82886205e-05
37    2.18548399e-05
38    5.56789683e-16
39    1.14660984e-05
40    4.94231764e-06
41    -2.27502277e-05
42    0.00086665125
43    -8.29514308e-06
44    1.04933893e-05
45    -1.99742075e-16
46    3.06826339e-05
47    4.7020337e-05
48    -0.000105633103
49    -4.8390221e-05
50    -6.12195208e-06
51    -4.77754994e-05
52    7.06980932e-16
53    0.00110956929
54    0.00858970191
55    0.0428506304
56    0.14711454
57    0.347565394
58    0.126418237
59    0.465482379
60    0.000643626413
61    -0.000449464737
62    1.92945899e-15
63    0.00162765737
64    -0.0007362584
65    0.000482695153
66    -3.67365351e-16
67    0.00142890203
68    0.000374918473
69    -0.000206419915
70    9.21385182e-15
71    -0.000414170173
72    -0.000717037465
73    0.000473217261
74    -1.99525429e-14
75    -0.00073328217
76    -1.94720057e-05
77    0.000106913608
78    -3.49127371e-14
79    -0.000277842839
80    -3.95642118e-16
81    -0.000241988092
82    3.27459122e-16
83    0.000158249164
84    -3.81330271e-07
85    -2.80561619e-06
86    -1.46309578e-05
87    -4.70040507e-05
88    -0.00013849413
89    -0.000181115916
90    -0.000201794648
91    0.00021177348
92    -0.000128240205
93    4.25273627e-16
94    0.000595200676
95    0.000535197706
96    -0.00032075373
97    1.06382346e-15
98    -0.000256753642
99    -0.000239881912
100    0.000137783439
101    -7.34488041e-16
102    0.000148493098
103    0.000284604089
104    -0.000152701438
105    6.10704666e-16
106    -0.000894994704
107    -0.000144675626
108    0.000109827122
109    2.02666388e-14
110    -0.000239554645
111    9.75097205e-17
112    -0.000116367802
113    5.24636406e-16
114    0.000126480078
115    -3.56510774e-07
116    -2.74168712e-06
117    -1.38049374e-05
118    -4.69058389e-05
119    -0.000116105646
120    -6.66977624e-05
121    -0.000134562558
122    1.79570865e-05
123    -2.79645051e-06
124    2.18149775e-15
125    4.43893954e-05
126    -5.22688624e-05
127    9.37819911e-06
128    5.14796694e-15
129    5.77523883e-05
130    0.000388880371
131    0.000130348627
132    1.36428498e-15
133    0.00333880153
134    -0.000433476955
135    -0.000850352221
136    4.5312229e-14
137    0.000588395572
138    -0.000130860469
139    -0.000125135899
140    1.25457121e-14
141    -9.77783733e-06
142    2.24148521e-16
143    4.57229464e-06
144    2.43335514e-16
145    3.87230059e-05
146    -1.64745696e-09
147    1.03282431e-09
148    -9.33887945e-08
149    5.09075058e-08
150    -3.40700817e-06
151    -1.32103014e-05
152    7.0974504e-06
153    1.49011012e-06
154    8.78800644e-07
155    1.84089531e-15
156    3.46900808e-05
157    -2.17581966e-05
158    -1.59712316e-06
159    2.10215124e-15
160    -0.000135262192
161    6.33168685e-05
162    5.36295983e-05
163    6.66273145e-15
164    -0.000643014925
165    0.000218901201
166    0.000110904139
167    -5.75387103e-15
168    -7.18596951e-05
169    3.14083238e-05
170    0.000112798883
171    -1.43769831e-14
172    -2.89659503e-06
173    -3.90890788e-16
174    5.60870117e-07
175    -5.38905264e-16
176    5.41633637e-06
177    -3.02371142e-07
178    -2.16820235e-06
179    -1.17003995e-05
180    -3.60885253e-05
181    -0.0001234023
182    -0.000225043534
183    -8.70984218e-05
184    -7.35586692e-05
185    -4.39676009e-05
186    1.95597235e-15
187    0.000547813792
188    -0.000626495061
189    -0.000292745372
190    9.20354653e-16
191    -7.69068377e-05
192    0.000191667288
193    -1.60796158e-05
194    7.90303169e-15
195    -0.000376974811
196    0.000481697645
197    0.000262645952
198    -1.53085592e-14
199    1.25311571e-05
200    -0.000100681941
201    2.66420461e-05
202    6.36237026e-15
203    0.000228972894
204    -7.92031062e-18
205    -9.85954985e-05
206    1.87105299e-16
207    0.000207353906
208    -2.94968352e-07
209    -2.1064691e-06
210    -1.14350414e-05
211    -3.50350998e-05
212    -0.000122157326
213    -0.000227308498
214    -8.04065567e-05
215    7.13702153e-06
216    8.12100942e-05
217    3.95638658e-16
218    0.000548279447
219    -3.4193232e-05
220    0.000704039683
221    2.49945001e-15
222    -7.07176453e-05
223    6.05110173e-05
224    -0.00016945127
225    -2.78873779e-15
226    -0.000439449245
227    9.83627083e-05
228    -0.000234357715
229    5.98009614e-15
230    8.86821614e-05
231    -0.000141442175
232    0.000302767702
233    -3.59100597e-14
234    -2.71231807e-05
235    7.82550385e-18
236    -0.000101180617
237    3.28466844e-16
238    -0.000316885379
239    -3.50446087e-08
240    -2.44407053e-07
241    -1.4132821e-06
242    -4.10399185e-06
243    -1.69131212e-05
244    -3.65013364e-05
245    2.98856787e-06
246    8.50145748e-06
247    -2.90082019e-06
248    1.87434511e-15
249    7.42005648e-05
250    -6.82205902e-05
251    1.83831819e-05
252    2.16391988e-15
253    0.000126577054
254    -0.000116242833
255    5.75655686e-05
256    7.20550652e-15
257    -0.00537848721
258    0.00089961829
259    -0.000563103346
260    -2.97773987e-14
261    -7.83166797e-05
262    7.77310146e-05
263    -3.86733728e-05
264    -4.2848554e-14
265    2.44034777e-05
266    5.7047801e-16
267    1.71044218e-06
268    -6.29514658e-17
269    2.44913645e-06
270    4.94061626e-06
271    5.2336327e-05
272    1.02922745e-05
273    -0.000106536075
274    -1.37943153e-05
275    7.27732014e-06
276    7.70058324e-16
[5D]