[Molden Format]
[Atoms] (Angs)
  C      1    6     -0.00714236     -1.70213747     -0.00000000
  H      2    1     -2.06882847     -1.44022412      0.00000000
  H      3    1     -0.12337987     -2.77567521      0.00000000
  H      4    1      0.04651892      1.98813947     -0.00000000
  C      5    6     -1.21953563      0.40211669      0.00000000
  O      6    8     -2.25921553      1.03043814      0.00000000
  C      7    6      1.28797806      0.34644937     -0.00000000
  O      8    8      2.31273661      1.00537216     -0.00000000
  N      9    7      0.03446295      0.97739857     -0.00000000
  N     10    7     -1.17287765     -0.98229824      0.00000000
  C     11    6      1.20107039     -1.10433419     -0.00000000
  H     12    1      2.11220096     -1.67699125     -0.00000000
[GTO]
1    0
S    1    1.000000
   4.56324000E+03    1.96665000E-03 
S    1    1.000000
   6.82024000E+02    1.52306000E-02 
S    1    1.000000
   1.54973000E+02    7.61269000E-02 
S    1    1.000000
   4.44553000E+01    2.60801000E-01 
S    1    1.000000
   1.30290000E+01    6.16462000E-01 
S    1    1.000000
   1.82773000E+00    2.21006000E-01 
SP   3    1.000000
   2.09642000E+01    1.14660000E-01   4.02487000E-02 
   4.80331000E+00    9.19999000E-01   2.37594000E-01 
   1.45933000E+00   -3.03068000E-03   8.15854000E-01 
SP   1    1.000000
   4.83456000E-01    1.00000000E+00   1.00000000E+00 
SP   1    1.000000
   1.45585000E-01    1.00000000E+00   1.00000000E+00 
SP   1    1.000000
   4.38000000E-02    1.00000000E+00   1.00000000E+00 
SP   1    1.000000
   1.31927711E-02    1.00000000E+00   1.00000000E+00 
D    1    1.000000
   6.26000000E-01    1.00000000E+00 

2    0
S    3    1.000000
   3.38650000E+01    2.54938000E-02 
   5.09479000E+00    1.90373000E-01 
   1.15879000E+00    8.52161000E-01 
S    1    1.000000
   3.25840000E-01    1.00000000E+00 
S    1    1.000000
   1.02741000E-01    1.00000000E+00 
S    1    1.000000
   3.60000000E-02    1.00000000E+00 
P    1    1.000000
   7.50000000E-01    1.00000000E+00 

3    0
S    3    1.000000
   3.38650000E+01    2.54938000E-02 
   5.09479000E+00    1.90373000E-01 
   1.15879000E+00    8.52161000E-01 
S    1    1.000000
   3.25840000E-01    1.00000000E+00 
S    1    1.000000
   1.02741000E-01    1.00000000E+00 
S    1    1.000000
   3.60000000E-02    1.00000000E+00 
P    1    1.000000
   7.50000000E-01    1.00000000E+00 

4    0
S    3    1.000000
   3.38650000E+01    2.54938000E-02 
   5.09479000E+00    1.90373000E-01 
   1.15879000E+00    8.52161000E-01 
S    1    1.000000
   3.25840000E-01    1.00000000E+00 
S    1    1.000000
   1.02741000E-01    1.00000000E+00 
S    1    1.000000
   3.60000000E-02    1.00000000E+00 
P    1    1.000000
   7.50000000E-01    1.00000000E+00 

5    0
S    1    1.000000
   4.56324000E+03    1.96665000E-03 
S    1    1.000000
   6.82024000E+02    1.52306000E-02 
S    1    1.000000
   1.54973000E+02    7.61269000E-02 
S    1    1.000000
   4.44553000E+01    2.60801000E-01 
S    1    1.000000
   1.30290000E+01    6.16462000E-01 
S    1    1.000000
   1.82773000E+00    2.21006000E-01 
SP   3    1.000000
   2.09642000E+01    1.14660000E-01   4.02487000E-02 
   4.80331000E+00    9.19999000E-01   2.37594000E-01 
   1.45933000E+00   -3.03068000E-03   8.15854000E-01 
SP   1    1.000000
   4.83456000E-01    1.00000000E+00   1.00000000E+00 
SP   1    1.000000
   1.45585000E-01    1.00000000E+00   1.00000000E+00 
SP   1    1.000000
   4.38000000E-02    1.00000000E+00   1.00000000E+00 
SP   1    1.000000
   1.31927711E-02    1.00000000E+00   1.00000000E+00 
D    1    1.000000
   6.26000000E-01    1.00000000E+00 

6    0
S    1    1.000000
   8.58850000E+03    1.89515000E-03 
S    1    1.000000
   1.29723000E+03    1.43859000E-02 
S    1    1.000000
   2.99296000E+02    7.07320000E-02 
S    1    1.000000
   8.73771000E+01    2.40001000E-01 
S    1    1.000000
   2.56789000E+01    5.94797000E-01 
S    1    1.000000
   3.74004000E+00    2.80802000E-01 
SP   3    1.000000
   4.21175000E+01    1.13889000E-01   3.65114000E-02 
   9.62837000E+00    9.20811000E-01   2.37153000E-01 
   2.85332000E+00   -3.27447000E-03   8.19702000E-01 
SP   1    1.000000
   9.05661000E-01    1.00000000E+00   1.00000000E+00 
SP   1    1.000000
   2.55611000E-01    1.00000000E+00   1.00000000E+00 
SP   1    1.000000
   8.45000000E-02    1.00000000E+00   1.00000000E+00 
SP   1    1.000000
   2.54518072E-02    1.00000000E+00   1.00000000E+00 
D    1    1.000000
   1.29200000E+00    1.00000000E+00 

7    0
S    1    1.000000
   4.56324000E+03    1.96665000E-03 
S    1    1.000000
   6.82024000E+02    1.52306000E-02 
S    1    1.000000
   1.54973000E+02    7.61269000E-02 
S    1    1.000000
   4.44553000E+01    2.60801000E-01 
S    1    1.000000
   1.30290000E+01    6.16462000E-01 
S    1    1.000000
   1.82773000E+00    2.21006000E-01 
SP   3    1.000000
   2.09642000E+01    1.14660000E-01   4.02487000E-02 
   4.80331000E+00    9.19999000E-01   2.37594000E-01 
   1.45933000E+00   -3.03068000E-03   8.15854000E-01 
SP   1    1.000000
   4.83456000E-01    1.00000000E+00   1.00000000E+00 
SP   1    1.000000
   1.45585000E-01    1.00000000E+00   1.00000000E+00 
SP   1    1.000000
   4.38000000E-02    1.00000000E+00   1.00000000E+00 
SP   1    1.000000
   1.31927711E-02    1.00000000E+00   1.00000000E+00 
D    1    1.000000
   6.26000000E-01    1.00000000E+00 

8    0
S    1    1.000000
   8.58850000E+03    1.89515000E-03 
S    1    1.000000
   1.29723000E+03    1.43859000E-02 
S    1    1.000000
   2.99296000E+02    7.07320000E-02 
S    1    1.000000
   8.73771000E+01    2.40001000E-01 
S    1    1.000000
   2.56789000E+01    5.94797000E-01 
S    1    1.000000
   3.74004000E+00    2.80802000E-01 
SP   3    1.000000
   4.21175000E+01    1.13889000E-01   3.65114000E-02 
   9.62837000E+00    9.20811000E-01   2.37153000E-01 
   2.85332000E+00   -3.27447000E-03   8.19702000E-01 
SP   1    1.000000
   9.05661000E-01    1.00000000E+00   1.00000000E+00 
SP   1    1.000000
   2.55611000E-01    1.00000000E+00   1.00000000E+00 
SP   1    1.000000
   8.45000000E-02    1.00000000E+00   1.00000000E+00 
SP   1    1.000000
   2.54518072E-02    1.00000000E+00   1.00000000E+00 
D    1    1.000000
   1.29200000E+00    1.00000000E+00 

9    0
S    1    1.000000
   6.29348000E+03    1.96979000E-03 
S    1    1.000000
   9.49044000E+02    1.49613000E-02 
S    1    1.000000
   2.18776000E+02    7.35006000E-02 
S    1    1.000000
   6.36916000E+01    2.48937000E-01 
S    1    1.000000
   1.88282000E+01    6.02460000E-01 
S    1    1.000000
   2.72023000E+00    2.56202000E-01 
SP   3    1.000000
   3.06331000E+01    1.11906000E-01   3.83119000E-02 
   7.02614000E+00    9.21666000E-01   2.37403000E-01 
   2.11205000E+00   -2.56919000E-03   8.17592000E-01 
SP   1    1.000000
   6.84009000E-01    1.00000000E+00   1.00000000E+00 
SP   1    1.000000
   2.00878000E-01    1.00000000E+00   1.00000000E+00 
SP   1    1.000000
   6.39000000E-02    1.00000000E+00   1.00000000E+00 
SP   1    1.000000
   1.92469880E-02    1.00000000E+00   1.00000000E+00 
D    1    1.000000
   9.13000000E-01    1.00000000E+00 

10    0
S    1    1.000000
   6.29348000E+03    1.96979000E-03 
S    1    1.000000
   9.49044000E+02    1.49613000E-02 
S    1    1.000000
   2.18776000E+02    7.35006000E-02 
S    1    1.000000
   6.36916000E+01    2.48937000E-01 
S    1    1.000000
   1.88282000E+01    6.02460000E-01 
S    1    1.000000
   2.72023000E+00    2.56202000E-01 
SP   3    1.000000
   3.06331000E+01    1.11906000E-01   3.83119000E-02 
   7.02614000E+00    9.21666000E-01   2.37403000E-01 
   2.11205000E+00   -2.56919000E-03   8.17592000E-01 
SP   1    1.000000
   6.84009000E-01    1.00000000E+00   1.00000000E+00 
SP   1    1.000000
   2.00878000E-01    1.00000000E+00   1.00000000E+00 
SP   1    1.000000
   6.39000000E-02    1.00000000E+00   1.00000000E+00 
SP   1    1.000000
   1.92469880E-02    1.00000000E+00   1.00000000E+00 
D    1    1.000000
   9.13000000E-01    1.00000000E+00 

11    0
S    1    1.000000
   4.56324000E+03    1.96665000E-03 
S    1    1.000000
   6.82024000E+02    1.52306000E-02 
S    1    1.000000
   1.54973000E+02    7.61269000E-02 
S    1    1.000000
   4.44553000E+01    2.60801000E-01 
S    1    1.000000
   1.30290000E+01    6.16462000E-01 
S    1    1.000000
   1.82773000E+00    2.21006000E-01 
SP   3    1.000000
   2.09642000E+01    1.14660000E-01   4.02487000E-02 
   4.80331000E+00    9.19999000E-01   2.37594000E-01 
   1.45933000E+00   -3.03068000E-03   8.15854000E-01 
SP   1    1.000000
   4.83456000E-01    1.00000000E+00   1.00000000E+00 
SP   1    1.000000
   1.45585000E-01    1.00000000E+00   1.00000000E+00 
SP   1    1.000000
   4.38000000E-02    1.00000000E+00   1.00000000E+00 
SP   1    1.000000
   1.31927711E-02    1.00000000E+00   1.00000000E+00 
D    1    1.000000
   6.26000000E-01    1.00000000E+00 

12    0
S    3    1.000000
   3.38650000E+01    2.54938000E-02 
   5.09479000E+00    1.90373000E-01 
   1.15879000E+00    8.52161000E-01 
S    1    1.000000
   3.25840000E-01    1.00000000E+00 
S    1    1.000000
   1.02741000E-01    1.00000000E+00 
S    1    1.000000
   3.60000000E-02    1.00000000E+00 
P    1    1.000000
   7.50000000E-01    1.00000000E+00 

[MO]
Sym=X
Ene=0.946452
Spin=Alpha
Occup=1
1    1.3238517e-05
2    0.000102566956
3    0.000511225553
4    0.00175765891
5    0.00413360696
6    0.00154701036
7    0.0056533665
8    -0.000148840515
9    -7.18510022e-05
10    -4.38286365e-16
11    -0.000484978768
12    -0.000547471452
13    -0.000299136968
14    1.44507699e-15
15    0.00101272256
16    0.000285096907
17    0.000624580024
18    7.069902e-16
19    0.00257371047
20    0.000126212186
21    0.00137446039
22    -5.83858657e-14
23    0.000219540461
24    -1.48135622e-06
25    0.000257737612
26    6.9296898e-14
27    -0.000292050526
28    2.9914461e-16
29    2.01063352e-05
30    7.84001234e-16
31    -0.000208542423
32    -6.6716972e-06
33    -5.67538003e-05
34    -9.60391489e-05
35    -0.000313170224
36    -1.47587731e-05
37    4.88884105e-06
38    -1.44129902e-15
39    -2.44858567e-05
40    -6.08856687e-05
41    0.000412780322
42    0.000691443687
43    -5.79715811e-05
44    -6.47010655e-05
45    -1.68271668e-17
46    -1.2638407e-05
47    -4.00413254e-05
48    -2.33462219e-05
49    -0.000253574442
50    -5.81033161e-06
51    4.57948672e-06
52    1.11337942e-15
53    -5.07908772e-08
54    -4.18047491e-07
55    -1.90607312e-06
56    -7.24204512e-06
57    -1.05637179e-05
58    2.15490108e-05
59    -3.71661674e-05
60    3.87236879e-06
61    -4.09523034e-06
62    -2.01817505e-15
63    -7.16059007e-05
64    -9.79165576e-06
65    1.45757951e-05
66    -1.73322145e-16
67    0.000607386496
68    0.000480927043
69    -0.000261055695
70    -5.45723428e-15
71    -8.01364341e-05
72    0.000203864237
73    9.12815588e-05
74    -8.15446839e-14
75    -8.22932689e-05
76    7.20076122e-05
77    -4.58373248e-05
78    -6.32328076e-14
79    -3.67914094e-06
80    5.06625586e-16
81    -9.4784947e-06
82    1.20875976e-15
83    -1.6409234e-06
84    5.59112072e-10
85    -3.72084769e-09
86    3.91920516e-08
87    -8.13020666e-08
88    1.91002988e-06
89    8.0315568e-06
90    -4.66867186e-06
91    2.58205768e-06
92    -6.76766624e-07
93    -8.15090441e-16
94    -2.08818028e-05
95    -1.3081703e-05
96    4.94263249e-06
97    -2.60003175e-15
98    9.70191864e-05
99    4.62836226e-05
100    -2.49213777e-05
101    -3.54434949e-15
102    0.000546042584
103    0.000131257825
104    -8.61091425e-05
105    3.68026762e-15
106    0.000109536059
107    -5.54675388e-05
108    -0.000107636304
109    2.74470391e-14
110    3.95374604e-07
111    2.25435192e-16
112    -1.18004379e-06
113    -4.62787203e-16
114    -1.19776661e-06
115    4.52470607e-06
116    3.5001765e-05
117    0.000174901633
118    0.000599992611
119    0.00142957131
120    0.000646997284
121    0.00190467325
122    3.77776606e-06
123    8.16132265e-05
124    4.26040465e-15
125    -0.000548159064
126    3.85292481e-05
127    0.000634015703
128    3.8224961e-15
129    0.000617694701
130    -0.000522432988
131    -0.000917942895
132    1.40285818e-14
133    0.00186521994
134    -0.000785463781
135    -0.00105412036
136    -7.11150886e-14
137    0.000309474933
138    7.00381896e-05
139    -1.82683589e-06
140    4.44701591e-14
141    -5.72896097e-05
142    3.17695515e-16
143    7.16689099e-05
144    3.91261742e-16
145    0.000352680311
146    -6.06428797e-09
147    -8.22373563e-08
148    -1.48024423e-07
149    -1.46511095e-06
150    6.08699001e-06
151    3.51083162e-05
152    -2.76165737e-05
153    -8.35022232e-06
154    -2.39931676e-05
155    2.02108341e-15
156    -7.14820031e-05
157    4.3093151e-05
158    4.16214896e-05
159    5.70271451e-15
160    0.000196898619
161    -0.000125718684
162    -1.50005619e-06
163    3.11886806e-15
164    0.000837863199
165    -0.000119117411
166    -4.88284488e-05
167    1.58872164e-14
168    0.00182044127
169    -0.000361863583
170    -0.000103858992
171    3.05436205e-15
172    -2.7373779e-05
173    -6.59752901e-16
174    1.20411933e-06
175    -6.73574819e-16
176    2.53197705e-05
177    -8.43722459e-09
178    -1.07782724e-07
179    -2.20111886e-07
180    -1.9398086e-06
181    6.51473758e-06
182    4.1118919e-05
183    -3.23200692e-05
184    2.41267025e-05
185    -1.42290855e-05
186    -1.12866051e-15
187    -4.80150797e-05
188    -8.61537495e-05
189    3.70127104e-05
190    7.00432231e-15
191    -0.000289237883
192    0.000195270269
193    0.000220932766
194    -1.52239795e-14
195    -0.000660687942
196    0.000253867345
197    0.000297649901
198    6.18451949e-14
199    -0.000721385573
200    -0.000591816902
201    0.000194592112
202    4.31611153e-14
203    3.40600478e-05
204    -2.63353202e-16
205    4.2278932e-06
206    7.73128534e-16
207    -1.58224368e-05
208    -1.2372718e-08
209    -1.41083713e-07
210    -3.59393852e-07
211    -2.51198665e-06
212    5.84403531e-06
213    4.17440497e-05
214    -3.55166271e-05
215    2.75142311e-05
216    -9.02925144e-06
217    -3.18738177e-15
218    -5.07982325e-05
219    -8.72732159e-05
220    3.78492689e-05
221    2.48169184e-15
222    -0.00030192393
223    -0.000155838099
224    -0.000188485398
225    -1.59565842e-14
226    -0.000998357788
227    -0.000423520368
228    -0.000261902637
229    5.29600213e-14
230    -0.000570796211
231    -4.92520795e-05
232    -0.000224238373
233    1.21780993e-14
234    2.29375508e-05
235    -2.59789746e-17
236    1.02400767e-05
237    2.37541251e-16
238    -3.8265334e-05
239    -0.00110905878
240    -0.00858604606
241    -0.0428297426
242    -0.147055426
243    -0.347374226
244    -0.127043091
245    -0.465000226
246    0.00018036207
247    -0.00023242466
248    6.69074013e-16
249    -0.00182143211
250    3.8768519e-05
251    0.00014835399
252    6.14965385e-15
253    -0.00186964938
254    0.000801678582
255    -0.000609533912
256    -4.92161753e-15
257    -0.00460203775
258    0.00101483886
259    -0.00101708952
260    7.93746425e-14
261    -0.000265647413
262    -9.75032388e-05
263    -0.000223463634
264    -7.85939654e-14
265    -6.52952846e-05
266    6.2165676e-16
267    9.58429061e-05
268    2.42492899e-16
269    -8.32309507e-05
270    -0.00037809966
271    -0.000450185861
272    -0.000289098605
273    -0.000474433038
274    0.000265484886
275    -0.00015333488
276    1.02190867e-15
Sym=X
Ene=0.951217
Spin=Alpha
Occup=1
1    0.00110927498
2    0.00858759528
3    0.0428385213
4    0.147078331
5    0.347443602
6    0.126694085
7    0.465268725
8    -0.00111196998
9    0.000316581394
10    -8.73425075e-16
11    0.00168173183
12    0.00107369597
13    -5.87513116e-05
14    2.31803454e-15
15    0.00145896375
16    -0.000308250353
17    0.000846271301
18    -8.60337808e-15
19    0.000849251449
20    -0.000707018107
21    0.000536917385
22    8.82547878e-14
23    -0.000156924319
24    7.57758188e-05
25    -3.58285856e-05
26    -6.48918282e-14
27    0.000370670111
28    -3.333839e-16
29    -0.000238048455
30    6.41239227e-17
31    9.35821581e-05
32    2.91380799e-05
33    5.24101864e-05
34    3.90198775e-05
35    -9.55185374e-05
36    4.69521787e-05
37    1.5361186e-05
38    -2.17857197e-16
39    0.000380725243
40    0.00046508478
41    0.000231985976
42    0.000123192142
43    4.28762527e-05
44    0.000309270942
45    -1.37609038e-16
46    1.26813225e-05
47    -5.63554394e-05
48    0.000242199992
49    0.000257663585
50    5.7116604e-06
51    4.61197983e-06
52    6.89229788e-16
53    2.06594235e-07
54    1.63137314e-06
55    7.91133589e-06
56    2.80199833e-05
57    5.69056471e-05
58    -2.38208391e-05
59    0.000112015779
60    -5.0777383e-06
61    2.13232031e-05
62    2.29139163e-15
63    0.000111101932
64    1.90785217e-05
65    -8.45680857e-05
66    2.23122394e-16
67    0.000219655381
68    -0.000642875544
69    0.00040452729
70    4.87765795e-15
71    0.000676784613
72    -0.00032335638
73    0.00057560761
74    1.00817872e-13
75    0.000506860871
76    0.000174134925
77    8.73377311e-06
78    8.10185178e-14
79    -1.81581361e-05
80    4.93757259e-16
81    4.13023787e-06
82    -7.15477373e-16
83    -4.45524973e-05
84    -2.63558554e-09
85    6.06026595e-09
86    -1.5928044e-07
87    1.64369113e-07
88    -6.45139538e-06
89    -2.59867323e-05
90    1.43250948e-05
91    -4.18879121e-06
92    1.92019172e-06
93    1.53931124e-15
94    7.03700345e-05
95    2.67861979e-05
96    -2.61188022e-05
97    1.50746579e-15
98    -0.000306535485
99    -0.000158075539
100    8.76198239e-05
101    6.91926083e-15
102    -0.00103617705
103    -0.000163550719
104    0.000139073408
105    -7.82657468e-15
106    -0.00135768195
107    -0.00027475055
108    4.89900317e-05
109    -2.70976599e-14
110    -2.37696568e-06
111    -7.80537901e-16
112    7.1301155e-07
113    4.81361862e-16
114    -5.38558366e-06
115    -3.45667652e-09
116    2.56478045e-08
117    -2.50364622e-07
118    6.08428881e-07
119    -1.24370575e-05
120    -5.88780206e-05
121    3.23093088e-05
122    6.98288281e-06
123    2.48566797e-05
124    1.38926363e-16
125    0.000102301026
126    -3.12802184e-05
127    -0.00012775844
128    2.76581434e-16
129    0.000207984043
130    -0.000185898232
131    -0.000109921725
132    -4.47685873e-15
133    -0.000174952097
134    0.000265503966
135    0.000249259653
136    1.01483296e-13
137    3.68416075e-05
138    0.000189926345
139    -7.20426491e-05
140    -3.3491697e-14
141    3.6717836e-05
142    -1.57615899e-16
143    -7.27634906e-06
144    -3.50922289e-16
145    -5.60676214e-05
146    -4.19573339e-10
147    -4.21153103e-09
148    -1.38561516e-08
149    -7.21577989e-08
150    1.31230844e-07
151    1.31505716e-06
152    -1.19753117e-06
153    8.32487241e-07
154    2.91494099e-06
155    4.88211467e-16
156    -6.5216111e-06
157    -8.13587218e-06
158    -2.11186196e-05
159    -2.90154519e-15
160    0.000106630799
161    2.11656782e-06
162    3.61823588e-07
163    7.04706229e-15
164    -0.000117935909
165    -4.47683979e-06
166    -1.39759231e-05
167    -1.95218964e-14
168    -6.72888986e-06
169    1.81354085e-05
170    -4.70160928e-05
171    3.76413055e-15
172    4.71720177e-06
173    -6.2968725e-17
174    -1.33933929e-06
175    -2.6338385e-16
176    -6.95615558e-06
177    1.33646799e-09
178    5.03821133e-08
179    -4.21658127e-08
180    9.71919072e-07
181    -7.75441113e-06
182    -3.71775702e-05
183    2.42626006e-05
184    -1.43984444e-07
185    8.21532728e-06
186    2.3984263e-15
187    7.07455662e-05
188    -3.97655884e-06
189    -3.1045679e-05
190    -4.0958321e-15
191    3.50951871e-05
192    -5.10040208e-05
193    1.8623344e-05
194    2.01979773e-14
195    9.2467592e-05
196    0.000165915157
197    -0.000546428
198    -6.84981008e-14
199    0.000763988584
200    -0.000289013473
201    -0.000129069417
202    -6.8179138e-14
203    5.67437176e-06
204    -2.30308935e-16
205    -2.92667975e-06
206    -4.16837608e-16
207    6.5711396e-06
208    -3.16214096e-07
209    -2.23414333e-06
210    -1.23169219e-05
211    -3.71242609e-05
212    -0.000136634978
213    -0.00027928966
214    -7.07668179e-05
215    6.72984817e-05
216    -4.05550108e-05
217    3.00304448e-15
218    0.000673005299
219    0.000734017758
220    -0.0004443194
221    -6.78036821e-15
222    -8.94758879e-05
223    -1.48734665e-05
224    8.47428874e-05
225    2.28007282e-14
226    -0.00130434849
227    -0.000447159477
228    0.000372930751
229    -7.01289823e-14
230    -0.000574748407
231    -0.000319498204
232    5.83998548e-05
233    -2.75634598e-14
234    -0.000328724657
235    5.49134425e-17
236    -0.000130421203
237    1.63664557e-16
238    0.000183645854
239    1.26480769e-05
240    9.77643796e-05
241    0.000488650081
242    0.00167328857
243    0.00399197959
244    0.00153296515
245    0.00515585946
246    -0.000152504909
247    -7.06466476e-05
248    2.87469839e-16
249    0.000189965012
250    -0.000239619387
251    -0.000107721198
252    -2.71791975e-15
253    -0.000780145244
254    0.000584247743
255    -0.000258332851
256    1.06854579e-14
257    0.00119278269
258    -3.54773011e-05
259    -0.000621141575
260    -9.98274028e-14
261    -0.000217781643
262    -0.000169130795
263    -0.000106093268
264    6.85904659e-14
265    0.000164741577
266    4.51516021e-16
267    4.9895547e-05
268    -6.63361564e-16
269    0.000150500688
270    2.99537833e-05
271    2.71570269e-05
272    -0.000356896373
273    -0.000279604716
274    -8.84154412e-05
275    -1.31617494e-05
276    -6.77728042e-16
Sym=X
Ene=0.9523
Spin=Alpha
Occup=1
1    1.16584724e-09
2    4.63286776e-08
3    -3.66436377e-08
4    8.96473282e-07
5    -8.20966892e-06
6    -4.98872404e-05
7    2.68134765e-05
8    -1.6879621e-05
9    -1.44377232e-05
10    8.85019318e-16
11    0.000117545957
12    0.000118506802
13    0.000102290172
14    -1.97785862e-15
15    -8.15500539e-05
16    -9.37957696e-05
17    0.000104988168
18    4.78511284e-15
19    -0.00175934563
20    -2.21679863e-05
21    -0.000624193522
22    -2.86253554e-14
23    2.23235237e-05
24    9.60609385e-05
25    -0.000213611101
26    -5.32074821e-14
27    7.47841528e-05
28    6.63047294e-16
29    2.68879853e-07
30    5.14828891e-16
31    1.30682617e-05
32    1.04807263e-05
33    -3.86823695e-05
34    0.000213698865
35    0.000324500763
36    1.36216066e-06
37    -4.58354521e-06
38    -6.13000317e-16
39    -2.66027151e-07
40    8.96380306e-05
41    -3.89347089e-05
42    -2.18683419e-05
43    1.66473996e-05
44    1.95310433e-05
45    2.73052271e-16
46    3.45101527e-05
47    5.17462971e-05
48    0.000131884714
49    -0.000232874032
50    -1.22205276e-05
51    -4.14708594e-05
52    3.309686e-16
53    3.57228593e-07
54    2.79470093e-06
55    1.37340182e-05
56    4.79502856e-05
57    0.000105132769
58    2.37303236e-06
59    0.000171567346
60    -1.74080954e-05
61    -1.70573018e-06
62    -1.25159845e-15
63    7.47782049e-05
64    5.17068764e-05
65    2.31532161e-06
66    2.81344888e-16
67    -4.23263516e-05
68    -0.00047762981
69    0.000227881497
70    -3.68920131e-15
71    0.000575811084
72    -0.000130893138
73    -0.000260862827
74    -2.33811387e-14
75    -0.000477773249
76    -0.00018594997
77    -5.74628037e-05
78    -8.71116557e-15
79    5.32821459e-06
80    4.20286745e-16
81    1.99210853e-06
82    7.73642473e-16
83    4.34396138e-05
84    -1.83166249e-09
85    -8.61936396e-10
86    -9.92132869e-08
87    1.74776434e-08
88    -3.36590939e-06
89    -1.29088222e-05
90    6.69862499e-06
91    -1.02357436e-06
92    8.5632362e-07
93    -5.3314679e-16
94    3.69917657e-05
95    2.0060938e-05
96    -1.67600726e-06
97    -7.6999261e-16
98    -0.000177073342
99    -8.27708446e-05
100    6.44704198e-05
101    -3.46699436e-15
102    -0.000766679073
103    -0.000236027205
104    6.16893054e-05
105    3.31002308e-15
106    -0.000214548632
107    4.98656791e-05
108    0.000209041063
109    -1.33973183e-14
110    4.92188523e-06
111    6.86973779e-16
112    1.3396061e-06
113    -6.95986107e-17
114    5.17170688e-06
115    0.00110952703
116    0.00858939155
117    0.0428488396
118    0.147107776
119    0.347544311
120    0.126443541
121    0.465469153
122    -0.000739989107
123    0.000491641712
124    2.08809632e-15
125    0.00162815808
126    0.000805084253
127    -0.000244340453
128    4.7562666e-15
129    0.00152583673
130    -0.000287908611
131    0.000416236171
132    3.96248507e-15
133    -0.00235390071
134    0.000155360045
135    0.00241820589
136    -3.18481078e-14
137    -0.00025979074
138    -0.000297837366
139    4.51349577e-05
140    -1.90542575e-15
141    0.000335110446
142    2.10990308e-16
143    -0.000254713518
144    1.65548466e-16
145    -5.04543911e-05
146    -3.78796752e-07
147    -2.77755244e-06
148    -1.45562409e-05
149    -4.65329288e-05
150    -0.000140087785
151    -0.00019546591
152    -0.000193588681
153    -0.000205148405
154    -0.00013716072
155    1.86576286e-15
156    0.000642462573
157    -0.000558771615
158    -0.000372005405
159    1.66043611e-15
160    -0.000265514409
161    0.000229410063
162    0.000115260063
163    2.55055012e-15
164    -0.000368376528
165    -7.03692588e-05
166    -0.000188537266
167    1.19679655e-14
168    -0.00221783468
169    0.000593408047
170    6.50713094e-05
171    -7.4625184e-15
172    0.000256684813
173    -2.34853406e-16
174    -0.000114610904
175    -3.98748952e-16
176    0.00011400187
177    -2.78066531e-07
178    -1.93280036e-06
179    -1.09041743e-05
180    -3.19746701e-05
181    -0.000125956145
182    -0.00026228994
183    -4.59393348e-05
184    4.47981059e-05
185    -3.8690029e-05
186    -7.74536607e-17
187    0.000570597501
188    0.000694530883
189    -0.000329243731
190    4.56583647e-15
191    5.22575708e-05
192    -0.000162137181
193    -0.000157535056
194    -5.1819388e-15
195    -0.00125070923
196    -0.00101568413
197    -1.78514536e-05
198    2.62879807e-14
199    0.000436347253
200    0.000652426964
201    9.1146526e-05
202    1.31071843e-14
203    -0.000268491528
204    -8.70180759e-17
205    -0.000123797054
206    7.86564453e-16
207    0.000216154534
208    1.49944233e-09
209    5.01702645e-08
210    -3.26121437e-08
211    9.62745612e-07
212    -7.43465401e-06
213    -3.61649057e-05
214    2.36250289e-05
215    -7.1183531e-06
216    -1.59649746e-06
217    -1.66859063e-15
218    7.02358892e-05
219    2.80571163e-05
220    9.18898368e-06
221    -3.08621595e-16
222    -1.02843966e-05
223    -2.58439181e-05
224    3.64435164e-05
225    -5.68458018e-15
226    0.000117456441
227    0.000457401318
228    7.84024672e-05
229    9.63434892e-15
230    0.000736424138
231    -2.23874088e-05
232    0.000352491763
233    4.45373629e-14
234    -9.42568967e-06
235    2.36328398e-16
236    -3.96019962e-06
237    1.30161441e-16
238    -3.50300377e-06
239    4.01594622e-06
240    3.1048615e-05
241    0.000155092243
242    0.000531102147
243    0.00126101911
244    0.00042366549
245    0.00163766735
246    -1.87485679e-06
247    8.98377338e-05
248    1.2985528e-15
249    0.000297890709
250    7.40799235e-05
251    0.000488988543
252    2.39880603e-15
253    -0.000195421536
254    4.8623351e-05
255    -0.000271598637
256    1.10305188e-15
257    0.00603020505
258    -0.000265662004
259    0.00143221678
260    2.99763044e-14
261    0.000623404767
262    9.87383573e-05
263    0.000365909413
264    3.2429499e-14
265    3.53829806e-05
266    7.68342464e-16
267    -2.2285022e-05
268    1.44594521e-17
269    -0.000283323133
270    2.56976879e-05
271    9.18451487e-05
272    -0.000179156733
273    0.000267996343
274    -3.6987154e-05
275    7.23711506e-05
276    5.04479595e-16
Sym=X
Ene=0.954068
Spin=Alpha
Occup=1
1    -2.05121104e-07
2    -1.57764448e-06
3    -7.93975912e-06
4    -2.70091793e-05
5    -6.73669349e-05
6    -4.53952132e-05
7    -7.44253617e-05
8    1.55224928e-05
9    -7.89242859e-06
10    4.61571708e-16
11    5.12526311e-05
12    -7.87884985e-05
13    2.50346889e-05
14    2.37591233e-15
15    -0.000323480466
16    8.79609108e-05
17    -0.000143235813
18    -1.19775397e-16
19    0.00323547477
20    0.00049322424
21    0.00127913427
22    1.37430798e-14
23    0.000311257832
24    -0.000212478481
25    7.91399866e-05
26    4.94803488e-14
27    -5.59043758e-05
28    5.30263054e-16
29    1.6198813e-05
30    1.66169499e-17
31    -4.25286641e-07
32    3.2756368e-05
33    1.22704009e-05
34    2.62699137e-05
35    0.000106729397
36    3.82886205e-05
37    2.18548399e-05
38    5.56789683e-16
39    1.14660984e-05
40    4.94231764e-06
41    -2.27502277e-05
42    0.00086665125
43    -8.29514308e-06
44    1.04933893e-05
45    -1.99742075e-16
46    3.06826339e-05
47    4.7020337e-05
48    -0.000105633103
49    -4.8390221e-05
50    -6.12195208e-06
51    -4.77754994e-05
52    7.06980932e-16
53    0.00110956929
54    0.00858970191
55    0.0428506304
56    0.14711454
57    0.347565394
58    0.126418237
59    0.465482379
60    0.000643626413
61    -0.000449464737
62    1.92945899e-15
63    0.00162765737
64    -0.0007362584
65    0.000482695153
66    -3.67365351e-16
67    0.00142890203
68    0.000374918473
69    -0.000206419915
70    9.21385182e-15
71    -0.000414170173
72    -0.000717037465
73    0.000473217261
74    -1.99525429e-14
75    -0.00073328217
76    -1.94720057e-05
77    0.000106913608
78    -3.49127371e-14
79    -0.000277842839
80    -3.95642118e-16
81    -0.000241988092
82    3.27459122e-16
83    0.000158249164
84    -3.81330271e-07
85    -2.80561619e-06
86    -1.46309578e-05
87    -4.70040507e-05
88    -0.00013849413
89    -0.000181115916
90    -0.000201794648
91    0.00021177348
92    -0.000128240205
93    4.25273627e-16
94    0.000595200676
95    0.000535197706
96    -0.00032075373
97    1.06382346e-15
98    -0.000256753642
99    -0.000239881912
100    0.000137783439
101    -7.34488041e-16
102    0.000148493098
103    0.000284604089
104    -0.000152701438
105    6.10704666e-16
106    -0.000894994704
107    -0.000144675626
108    0.000109827122
109    2.02666388e-14
110    -0.000239554645
111    9.75097205e-17
112    -0.000116367802
113    5.24636406e-16
114    0.000126480078
115    -3.56510774e-07
116    -2.74168712e-06