[Molden Format]
[Atoms] (Angs)
  C      1    6     -0.00714236     -1.70213747     -0.00000000
  H      2    1     -2.06882847     -1.44022412      0.00000000
  H      3    1     -0.12337987     -2.77567521      0.00000000
  H      4    1      0.04651892      1.98813947     -0.00000000
  C      5    6     -1.21953563      0.40211669      0.00000000
  O      6    8     -2.25921553      1.03043814      0.00000000
  C      7    6      1.28797806      0.34644937     -0.00000000
  O      8    8      2.31273661      1.00537216     -0.00000000
  N      9    7      0.03446295      0.97739857     -0.00000000
  N     10    7     -1.17287765     -0.98229824      0.00000000
  C     11    6      1.20107039     -1.10433419     -0.00000000
  H     12    1      2.11220096     -1.67699125     -0.00000000
[GTO]
1    0
S    1    1.000000
   4.56324000E+03    1.96665000E-03 
S    1    1.000000
   6.82024000E+02    1.52306000E-02 
S    1    1.000000
   1.54973000E+02    7.61269000E-02 
S    1    1.000000
   4.44553000E+01    2.60801000E-01 
S    1    1.000000
   1.30290000E+01    6.16462000E-01 
S    1    1.000000
   1.82773000E+00    2.21006000E-01 
SP   3    1.000000
   2.09642000E+01    1.14660000E-01   4.02487000E-02 
   4.80331000E+00    9.19999000E-01   2.37594000E-01 
   1.45933000E+00   -3.03068000E-03   8.15854000E-01 
SP   1    1.000000
   4.83456000E-01    1.00000000E+00   1.00000000E+00 
SP   1    1.000000
   1.45585000E-01    1.00000000E+00   1.00000000E+00 
SP   1    1.000000
   4.38000000E-02    1.00000000E+00   1.00000000E+00 
SP   1    1.000000
   1.31927711E-02    1.00000000E+00   1.00000000E+00 
D    1    1.000000
   6.26000000E-01    1.00000000E+00 

2    0
S    3    1.000000
   3.38650000E+01    2.54938000E-02 
   5.09479000E+00    1.90373000E-01 
   1.15879000E+00    8.52161000E-01 
S    1    1.000000
   3.25840000E-01    1.00000000E+00 
S    1    1.000000
   1.02741000E-01    1.00000000E+00 
S    1    1.000000
   3.60000000E-02    1.00000000E+00 
P    1    1.000000
   7.50000000E-01    1.00000000E+00 

3    0
S    3    1.000000
   3.38650000E+01    2.54938000E-02 
   5.09479000E+00    1.90373000E-01 
   1.15879000E+00    8.52161000E-01 
S    1    1.000000
   3.25840000E-01    1.00000000E+00 
S    1    1.000000
   1.02741000E-01    1.00000000E+00 
S    1    1.000000
   3.60000000E-02    1.00000000E+00 
P    1    1.000000
   7.50000000E-01    1.00000000E+00 

4    0
S    3    1.000000
   3.38650000E+01    2.54938000E-02 
   5.09479000E+00    1.90373000E-01 
   1.15879000E+00    8.52161000E-01 
S    1    1.000000
   3.25840000E-01    1.00000000E+00 
S    1    1.000000
   1.02741000E-01    1.00000000E+00 
S    1    1.000000
   3.60000000E-02    1.00000000E+00 
P    1    1.000000
   7.50000000E-01    1.00000000E+00 

5    0
S    1    1.000000
   4.56324000E+03    1.96665000E-03 
S    1    1.000000
   6.82024000E+02    1.52306000E-02 
S    1    1.000000
   1.54973000E+02    7.61269000E-02 
S    1    1.000000
   4.44553000E+01    2.60801000E-01 
S    1    1.000000
   1.30290000E+01    6.16462000E-01 
S    1    1.000000
   1.82773000E+00    2.21006000E-01 
SP   3    1.000000
   2.09642000E+01    1.14660000E-01   4.02487000E-02 
   4.80331000E+00    9.19999000E-01   2.37594000E-01 
   1.45933000E+00   -3.03068000E-03   8.15854000E-01 
SP   1    1.000000
   4.83456000E-01    1.00000000E+00   1.00000000E+00 
SP   1    1.000000
   1.45585000E-01    1.00000000E+00   1.00000000E+00 
SP   1    1.000000
   4.38000000E-02    1.00000000E+00   1.00000000E+00 
SP   1    1.000000
   1.31927711E-02    1.00000000E+00   1.00000000E+00 
D    1    1.000000
   6.26000000E-01    1.00000000E+00 

6    0
S    1    1.000000
   8.58850000E+03    1.89515000E-03 
S    1    1.000000
   1.29723000E+03    1.43859000E-02 
S    1    1.000000
   2.99296000E+02    7.07320000E-02 
S    1    1.000000
   8.73771000E+01    2.40001000E-01 
S    1    1.000000
   2.56789000E+01    5.94797000E-01 
S    1    1.000000
   3.74004000E+00    2.80802000E-01 
SP   3    1.000000
   4.21175000E+01    1.13889000E-01   3.65114000E-02 
   9.62837000E+00    9.20811000E-01   2.37153000E-01 
   2.85332000E+00   -3.27447000E-03   8.19702000E-01 
SP   1    1.000000
   9.05661000E-01    1.00000000E+00   1.00000000E+00 
SP   1    1.000000
   2.55611000E-01    1.00000000E+00   1.00000000E+00 
SP   1    1.000000
   8.45000000E-02    1.00000000E+00   1.00000000E+00 
SP   1    1.000000
   2.54518072E-02    1.00000000E+00   1.00000000E+00 
D    1    1.000000
   1.29200000E+00    1.00000000E+00 

7    0
S    1    1.000000
   4.56324000E+03    1.96665000E-03 
S    1    1.000000
   6.82024000E+02    1.52306000E-02 
S    1    1.000000
   1.54973000E+02    7.61269000E-02 
S    1    1.000000
   4.44553000E+01    2.60801000E-01 
S    1    1.000000
   1.30290000E+01    6.16462000E-01 
S    1    1.000000
   1.82773000E+00    2.21006000E-01 
SP   3    1.000000
   2.09642000E+01    1.14660000E-01   4.02487000E-02 
   4.80331000E+00    9.19999000E-01   2.37594000E-01 
   1.45933000E+00   -3.03068000E-03   8.15854000E-01 
SP   1    1.000000
   4.83456000E-01    1.00000000E+00   1.00000000E+00 
SP   1    1.000000
   1.45585000E-01    1.00000000E+00   1.00000000E+00 
SP   1    1.000000
   4.38000000E-02    1.00000000E+00   1.00000000E+00 
SP   1    1.000000
   1.31927711E-02    1.00000000E+00   1.00000000E+00 
D    1    1.000000
   6.26000000E-01    1.00000000E+00 

8    0
S    1    1.000000
   8.58850000E+03    1.89515000E-03 
S    1    1.000000
   1.29723000E+03    1.43859000E-02 
S    1    1.000000
   2.99296000E+02    7.07320000E-02 
S    1    1.000000
   8.73771000E+01    2.40001000E-01 
S    1    1.000000
   2.56789000E+01    5.94797000E-01 
S    1    1.000000
   3.74004000E+00    2.80802000E-01 
SP   3    1.000000
   4.21175000E+01    1.13889000E-01   3.65114000E-02 
   9.62837000E+00    9.20811000E-01   2.37153000E-01 
   2.85332000E+00   -3.27447000E-03   8.19702000E-01 
SP   1    1.000000
   9.05661000E-01    1.00000000E+00   1.00000000E+00 
SP   1    1.000000
   2.55611000E-01    1.00000000E+00   1.00000000E+00 
SP   1    1.000000
   8.45000000E-02    1.00000000E+00   1.00000000E+00 
SP   1    1.000000
   2.54518072E-02    1.00000000E+00   1.00000000E+00 
D    1    1.000000
   1.29200000E+00    1.00000000E+00 

9    0
S    1    1.000000
   6.29348000E+03    1.96979000E-03 
S    1    1.000000
   9.49044000E+02    1.49613000E-02 
S    1    1.000000
   2.18776000E+02    7.35006000E-02 
S    1    1.000000
   6.36916000E+01    2.48937000E-01 
S    1    1.000000
   1.88282000E+01    6.02460000E-01 
S    1    1.000000
   2.72023000E+00    2.56202000E-01 
SP   3    1.000000
   3.06331000E+01    1.11906000E-01   3.83119000E-02 
   7.02614000E+00    9.21666000E-01   2.37403000E-01 
   2.11205000E+00   -2.56919000E-03   8.17592000E-01 
SP   1    1.000000
   6.84009000E-01    1.00000000E+00   1.00000000E+00 
SP   1    1.000000
   2.00878000E-01    1.00000000E+00   1.00000000E+00 
SP   1    1.000000
   6.39000000E-02    1.00000000E+00   1.00000000E+00 
SP   1    1.000000
   1.92469880E-02    1.00000000E+00   1.00000000E+00 
D    1    1.000000
   9.13000000E-01    1.00000000E+00 

10    0
S    1    1.000000
   6.29348000E+03    1.96979000E-03 
S    1    1.000000
   9.49044000E+02    1.49613000E-02 
S    1    1.000000
   2.18776000E+02    7.35006000E-02 
S    1    1.000000
   6.36916000E+01    2.48937000E-01 
S    1    1.000000
   1.88282000E+01    6.02460000E-01 
S    1    1.000000
   2.72023000E+00    2.56202000E-01 
SP   3    1.000000
   3.06331000E+01    1.11906000E-01   3.83119000E-02 
   7.02614000E+00    9.21666000E-01   2.37403000E-01 
   2.11205000E+00   -2.56919000E-03   8.17592000E-01 
SP   1    1.000000
   6.84009000E-01    1.00000000E+00   1.00000000E+00 
SP   1    1.000000
   2.00878000E-01    1.00000000E+00   1.00000000E+00 
SP   1    1.000000
   6.39000000E-02    1.00000000E+00   1.00000000E+00 
SP   1    1.000000
   1.92469880E-02    1.00000000E+00   1.00000000E+00 
D    1    1.000000
   9.13000000E-01    1.00000000E+00 

11    0
S    1    1.000000
   4.56324000E+03    1.96665000E-03 
S    1    1.000000
   6.82024000E+02    1.52306000E-02 
S    1    1.000000
   1.54973000E+02    7.61269000E-02 
S    1    1.000000
   4.44553000E+01    2.60801000E-01 
S    1    1.000000
   1.30290000E+01    6.16462000E-01 
S    1    1.000000
   1.82773000E+00    2.21006000E-01 
SP   3    1.000000
   2.09642000E+01    1.14660000E-01   4.02487000E-02 
   4.80331000E+00    9.19999000E-01   2.37594000E-01 
   1.45933000E+00   -3.03068000E-03   8.15854000E-01 
SP   1    1.000000
   4.83456000E-01    1.00000000E+00   1.00000000E+00 
SP   1    1.000000
   1.45585000E-01    1.00000000E+00   1.00000000E+00 
SP   1    1.000000
   4.38000000E-02    1.00000000E+00   1.00000000E+00 
SP   1    1.000000
   1.31927711E-02    1.00000000E+00   1.00000000E+00 
D    1    1.000000
   6.26000000E-01    1.00000000E+00 

12    0
S    3    1.000000
   3.38650000E+01    2.54938000E-02 
   5.09479000E+00    1.90373000E-01 
   1.15879000E+00    8.52161000E-01 
S    1    1.000000
   3.25840000E-01    1.00000000E+00 
S    1    1.000000
   1.02741000E-01    1.00000000E+00 
S    1    1.000000
   3.60000000E-02    1.00000000E+00 
P    1    1.000000
   7.50000000E-01    1.00000000E+00 

[MO]
Sym=X
Ene=0.952307
Spin=Alpha
Occup=1
1    9.09378496e-09
2    3.30984901e-08
3    4.32855135e-07
4    4.63876885e-07
5    1.14230422e-05
6    5.1060002e-05
7    -2.25090476e-05
8    1.68670734e-05
9    1.44397459e-05
10    -7.21847504e-16
11    -0.000117538704
12    -0.000118503152
13    -0.000102295503
14    2.18962088e-15
15    8.15846981e-05
16    9.37951242e-05
17    -0.0001049685
18    -4.5110146e-15
19    0.00175931976
20    2.21526832e-05
21    0.00062419014
22    2.97640811e-14
23    -2.23285521e-05
24    -9.60556329e-05
25    0.000213612706
26    5.53931781e-14
27    -7.47837393e-05
28    -8.63790468e-16
29    -2.71105083e-07
30    1.24800458e-15
31    -1.30703698e-05
32    -1.04812603e-05
33    3.86817757e-05
34    -0.00021370043
35    -0.000324508373
36    -1.3627716e-06
37    4.58328155e-06
38    -1.14463834e-15
39    2.68885129e-07
40    -8.96347805e-05
41    3.8943172e-05
42    2.18604403e-05
43    -1.66476562e-05
44    -1.95293836e-05
45    -1.80818533e-16
46    -3.45108954e-05
47    -5.17484039e-05
48    -0.000131880576
49    0.000232873789
50    1.22206296e-05
51    4.14720091e-05
52    -7.47077326e-16
53    -3.81290471e-07
54    -2.9809754e-06
55    -1.46632675e-05
56    -5.1140581e-05
57    -0.000112669991
58    -5.1145498e-06
59    -0.000181661692
60    1.73941439e-05
61    1.71561009e-06
62    -2.35126535e-15
63    -7.4813521e-05
64    -5.16908915e-05
65    -2.32636488e-06
66    -6.861964e-15
67    4.23060037e-05
68    0.000477622692
69    -0.000227877052
70    -3.66166368e-15
71    -0.000575797104
72    0.000130908643
73    0.000260859089
74    2.02405812e-14
75    0.000477792573
76    0.000185952983
77    5.74598768e-05
78    9.83056886e-15
79    -5.32241469e-06
80    -3.02185799e-16
81    -1.98695733e-06
82    7.07558158e-17
83    -4.3443486e-05
84    1.84081857e-09
85    9.29645862e-10
86    9.95633497e-08
87    -1.63434215e-08
88    3.36916506e-06
89    1.29127632e-05
90    -6.69377808e-06
91    1.01898247e-06
92    -8.53534876e-07
93    -1.58014794e-15
94    -3.70043285e-05
95    -2.00724897e-05
96    1.68279685e-06
97    -3.06014689e-15
98    0.000177077506
99    8.27752701e-05
100    -6.44729684e-05
101    -2.65815939e-15
102    0.000766674217
103    0.000236021417
104    -6.1685956e-05
105    -9.63098118e-15
106    0.000214557227
107    -4.9865835e-05
108    -0.000209044534
109    1.13262096e-14
110    -4.91670638e-06
111    -2.60221822e-16
112    -1.33709274e-06
113    -5.59481209e-16
114    -5.17451735e-06
115    -0.00110952696
116    -0.00858939102
117    -0.0428488369
118    -0.147107767
119    -0.347544289
120    -0.126443531
121    -0.465469124
122    0.00073998884
123    -0.000491640266
124    5.50071985e-16
125    -0.00162816592
126    -0.000805082834
127    0.000244348116
128    1.00888365e-16
129    -0.00152582731
130    0.000287891047
131    -0.000416253062
132    2.04334751e-15
133    0.00235385339
134    -0.000155359555
135    -0.00241820027
136    3.65338488e-14
137    0.000259782715
138    0.000297842882
139    -4.51328963e-05
140    5.06784103e-15
141    -0.000335110705
142    -2.55698782e-16
143    0.000254714371
144    1.32571522e-15
145    5.04580598e-05
146    3.78825217e-07
147    2.77776816e-06
148    1.45573045e-05
149    4.65365265e-05
150    0.000140096907
151    0.000195470958
152    0.000193601
153    0.000205148219
154    0.000137160361
155    2.90564306e-16
156    -0.00064246427
157    0.000558772649
158    0.000372005854
159    2.11189134e-15
160    0.000265521091
161    -0.000229413217
162    -0.00011526125
163    3.19291109e-15
164    0.00036840141
165    7.03627766e-05
166    0.000188534037
167    -5.47702894e-15
168    0.00221786231
169    -0.00059341375
170    -6.50756705e-05
171    1.2385516e-14
172    -0.000256685101
173    -1.61540019e-16
174    0.000114610894
175    -1.09791626e-16
176    -0.000114001693
177    2.78016347e-07
178    1.9324151e-06
179    1.09023117e-05
180    3.19682624e-05
181    0.000125941503
182    0.000262287629
183    4.59168566e-05
184    -4.47961599e-05
185    3.86908628e-05
186    -6.55815773e-16
187    -0.000570609645
188    -0.000694518567
189    0.000329250322
190    -5.80093024e-15
191    -5.22596793e-05
192    0.000162135345
193    0.000157538722
194    3.81931688e-15
195    0.00125070871
196    0.0010156788
197    1.78450959e-05
198    -2.62817394e-14
199    -0.000436351034
200    -0.000652435926
201    -9.11454714e-05
202    -1.12146975e-14
203    0.000268487101
204    1.73200432e-16
205    0.000123799223
206    6.72413431e-16
207    -0.000216159196
208    -1.46397097e-09
209    -4.99023039e-08
210    3.3941545e-08
211    -9.58291036e-07
212    7.44598122e-06
213    3.61721169e-05
214    -2.36107503e-05
215    7.11920622e-06
216    1.59424077e-06
217    -7.16435753e-16
218    -7.02422719e-05
219    -2.80509587e-05
220    -9.20774808e-06
221    -3.8966603e-15
222    1.02808165e-05
223    2.58402605e-05
224    -3.64417495e-05
225    8.68550478e-17
226    -0.000117472844
227    -0.000457413487
228    -7.83977025e-05
229    -1.31484397e-14
230    -0.000736439327
231    2.23869178e-05
232    -0.000352500999
233    -4.40659194e-14
234    9.42362101e-06
235    -9.45083957e-16
236    3.96135826e-06
237    1.99586882e-16
238    3.51099923e-06
239    -4.03161706e-06
240    -3.11699365e-05
241    -0.000155697418
242    -0.000533180065
243    -0.00126592705
244    -0.000425459122
245    -0.00164423945
246    1.87585598e-06
247    -8.984162e-05
248    7.80255866e-16
249    -0.000297916522
250    -7.40800697e-05
251    -0.000488987812
252    1.36825355e-15
253    0.000195385112
254    -4.86041255e-05
255    0.000271586372
256    3.77644094e-15
257    -0.00603014319
258    0.000265656661
259    -0.00143222468
260    -2.57760129e-14
261    -0.00062340882
262    -9.87429319e-05
263    -0.000365912671
264    -2.92535805e-14
265    -3.53829423e-05
266    -2.02837015e-16
267    2.22868017e-05
268    3.54926763e-16
269    0.000283323265
270    -2.57029053e-05
271    -9.18524434e-05
272    0.000179149158
273    -0.000268003345
274    3.69904293e-05
275    -7.2373611e-05
276    8.37046482e-16
[5D]