[Molden Format]
[Atoms] (Angs)
  C      1    6     -0.00714236     -1.70213747     -0.00000000
  H      2    1     -2.06882847     -1.44022412      0.00000000
  H      3    1     -0.12337987     -2.77567521      0.00000000
  H      4    1      0.04651892      1.98813947     -0.00000000
  C      5    6     -1.21953563      0.40211669      0.00000000
  O      6    8     -2.25921553      1.03043814      0.00000000
  C      7    6      1.28797806      0.34644937     -0.00000000
  O      8    8      2.31273661      1.00537216     -0.00000000
  N      9    7      0.03446295      0.97739857     -0.00000000
  N     10    7     -1.17287765     -0.98229824      0.00000000
  C     11    6      1.20107039     -1.10433419     -0.00000000
  H     12    1      2.11220096     -1.67699125     -0.00000000
[GTO]
1    0
S    1    1.000000
   4.56324000E+03    1.96665000E-03 
S    1    1.000000
   6.82024000E+02    1.52306000E-02 
S    1    1.000000
   1.54973000E+02    7.61269000E-02 
S    1    1.000000
   4.44553000E+01    2.60801000E-01 
S    1    1.000000
   1.30290000E+01    6.16462000E-01 
S    1    1.000000
   1.82773000E+00    2.21006000E-01 
SP   3    1.000000
   2.09642000E+01    1.14660000E-01   4.02487000E-02 
   4.80331000E+00    9.19999000E-01   2.37594000E-01 
   1.45933000E+00   -3.03068000E-03   8.15854000E-01 
SP   1    1.000000
   4.83456000E-01    1.00000000E+00   1.00000000E+00 
SP   1    1.000000
   1.45585000E-01    1.00000000E+00   1.00000000E+00 
SP   1    1.000000
   4.38000000E-02    1.00000000E+00   1.00000000E+00 
SP   1    1.000000
   1.31927711E-02    1.00000000E+00   1.00000000E+00 
D    1    1.000000
   6.26000000E-01    1.00000000E+00 

2    0
S    3    1.000000
   3.38650000E+01    2.54938000E-02 
   5.09479000E+00    1.90373000E-01 
   1.15879000E+00    8.52161000E-01 
S    1    1.000000
   3.25840000E-01    1.00000000E+00 
S    1    1.000000
   1.02741000E-01    1.00000000E+00 
S    1    1.000000
   3.60000000E-02    1.00000000E+00 
P    1    1.000000
   7.50000000E-01    1.00000000E+00 

3    0
S    3    1.000000
   3.38650000E+01    2.54938000E-02 
   5.09479000E+00    1.90373000E-01 
   1.15879000E+00    8.52161000E-01 
S    1    1.000000
   3.25840000E-01    1.00000000E+00 
S    1    1.000000
   1.02741000E-01    1.00000000E+00 
S    1    1.000000
   3.60000000E-02    1.00000000E+00 
P    1    1.000000
   7.50000000E-01    1.00000000E+00 

4    0
S    3    1.000000
   3.38650000E+01    2.54938000E-02 
   5.09479000E+00    1.90373000E-01 
   1.15879000E+00    8.52161000E-01 
S    1    1.000000
   3.25840000E-01    1.00000000E+00 
S    1    1.000000
   1.02741000E-01    1.00000000E+00 
S    1    1.000000
   3.60000000E-02    1.00000000E+00 
P    1    1.000000
   7.50000000E-01    1.00000000E+00 

5    0
S    1    1.000000
   4.56324000E+03    1.96665000E-03 
S    1    1.000000
   6.82024000E+02    1.52306000E-02 
S    1    1.000000
   1.54973000E+02    7.61269000E-02 
S    1    1.000000
   4.44553000E+01    2.60801000E-01 
S    1    1.000000
   1.30290000E+01    6.16462000E-01 
S    1    1.000000
   1.82773000E+00    2.21006000E-01 
SP   3    1.000000
   2.09642000E+01    1.14660000E-01   4.02487000E-02 
   4.80331000E+00    9.19999000E-01   2.37594000E-01 
   1.45933000E+00   -3.03068000E-03   8.15854000E-01 
SP   1    1.000000
   4.83456000E-01    1.00000000E+00   1.00000000E+00 
SP   1    1.000000
   1.45585000E-01    1.00000000E+00   1.00000000E+00 
SP   1    1.000000
   4.38000000E-02    1.00000000E+00   1.00000000E+00 
SP   1    1.000000
   1.31927711E-02    1.00000000E+00   1.00000000E+00 
D    1    1.000000
   6.26000000E-01    1.00000000E+00 

6    0
S    1    1.000000
   8.58850000E+03    1.89515000E-03 
S    1    1.000000
   1.29723000E+03    1.43859000E-02 
S    1    1.000000
   2.99296000E+02    7.07320000E-02 
S    1    1.000000
   8.73771000E+01    2.40001000E-01 
S    1    1.000000
   2.56789000E+01    5.94797000E-01 
S    1    1.000000
   3.74004000E+00    2.80802000E-01 
SP   3    1.000000
   4.21175000E+01    1.13889000E-01   3.65114000E-02 
   9.62837000E+00    9.20811000E-01   2.37153000E-01 
   2.85332000E+00   -3.27447000E-03   8.19702000E-01 
SP   1    1.000000
   9.05661000E-01    1.00000000E+00   1.00000000E+00 
SP   1    1.000000
   2.55611000E-01    1.00000000E+00   1.00000000E+00 
SP   1    1.000000
   8.45000000E-02    1.00000000E+00   1.00000000E+00 
SP   1    1.000000
   2.54518072E-02    1.00000000E+00   1.00000000E+00 
D    1    1.000000
   1.29200000E+00    1.00000000E+00 

7    0
S    1    1.000000
   4.56324000E+03    1.96665000E-03 
S    1    1.000000
   6.82024000E+02    1.52306000E-02 
S    1    1.000000
   1.54973000E+02    7.61269000E-02 
S    1    1.000000
   4.44553000E+01    2.60801000E-01 
S    1    1.000000
   1.30290000E+01    6.16462000E-01 
S    1    1.000000
   1.82773000E+00    2.21006000E-01 
SP   3    1.000000
   2.09642000E+01    1.14660000E-01   4.02487000E-02 
   4.80331000E+00    9.19999000E-01   2.37594000E-01 
   1.45933000E+00   -3.03068000E-03   8.15854000E-01 
SP   1    1.000000
   4.83456000E-01    1.00000000E+00   1.00000000E+00 
SP   1    1.000000
   1.45585000E-01    1.00000000E+00   1.00000000E+00 
SP   1    1.000000
   4.38000000E-02    1.00000000E+00   1.00000000E+00 
SP   1    1.000000
   1.31927711E-02    1.00000000E+00   1.00000000E+00 
D    1    1.000000
   6.26000000E-01    1.00000000E+00 

8    0
S    1    1.000000
   8.58850000E+03    1.89515000E-03 
S    1    1.000000
   1.29723000E+03    1.43859000E-02 
S    1    1.000000
   2.99296000E+02    7.07320000E-02 
S    1    1.000000
   8.73771000E+01    2.40001000E-01 
S    1    1.000000
   2.56789000E+01    5.94797000E-01 
S    1    1.000000
   3.74004000E+00    2.80802000E-01 
SP   3    1.000000
   4.21175000E+01    1.13889000E-01   3.65114000E-02 
   9.62837000E+00    9.20811000E-01   2.37153000E-01 
   2.85332000E+00   -3.27447000E-03   8.19702000E-01 
SP   1    1.000000
   9.05661000E-01    1.00000000E+00   1.00000000E+00 
SP   1    1.000000
   2.55611000E-01    1.00000000E+00   1.00000000E+00 
SP   1    1.000000
   8.45000000E-02    1.00000000E+00   1.00000000E+00 
SP   1    1.000000
   2.54518072E-02    1.00000000E+00   1.00000000E+00 
D    1    1.000000
   1.29200000E+00    1.00000000E+00 

9    0
S    1    1.000000
   6.29348000E+03    1.96979000E-03 
S    1    1.000000
   9.49044000E+02    1.49613000E-02 
S    1    1.000000
   2.18776000E+02    7.35006000E-02 
S    1    1.000000
   6.36916000E+01    2.48937000E-01 
S    1    1.000000
   1.88282000E+01    6.02460000E-01 
S    1    1.000000
   2.72023000E+00    2.56202000E-01 
SP   3    1.000000
   3.06331000E+01    1.11906000E-01   3.83119000E-02 
   7.02614000E+00    9.21666000E-01   2.37403000E-01 
   2.11205000E+00   -2.56919000E-03   8.17592000E-01 
SP   1    1.000000
   6.84009000E-01    1.00000000E+00   1.00000000E+00 
SP   1    1.000000
   2.00878000E-01    1.00000000E+00   1.00000000E+00 
SP   1    1.000000
   6.39000000E-02    1.00000000E+00   1.00000000E+00 
SP   1    1.000000
   1.92469880E-02    1.00000000E+00   1.00000000E+00 
D    1    1.000000
   9.13000000E-01    1.00000000E+00 

10    0
S    1    1.000000
   6.29348000E+03    1.96979000E-03 
S    1    1.000000
   9.49044000E+02    1.49613000E-02 
S    1    1.000000
   2.18776000E+02    7.35006000E-02 
S    1    1.000000
   6.36916000E+01    2.48937000E-01 
S    1    1.000000
   1.88282000E+01    6.02460000E-01 
S    1    1.000000
   2.72023000E+00    2.56202000E-01 
SP   3    1.000000
   3.06331000E+01    1.11906000E-01   3.83119000E-02 
   7.02614000E+00    9.21666000E-01   2.37403000E-01 
   2.11205000E+00   -2.56919000E-03   8.17592000E-01 
SP   1    1.000000
   6.84009000E-01    1.00000000E+00   1.00000000E+00 
SP   1    1.000000
   2.00878000E-01    1.00000000E+00   1.00000000E+00 
SP   1    1.000000
   6.39000000E-02    1.00000000E+00   1.00000000E+00 
SP   1    1.000000
   1.92469880E-02    1.00000000E+00   1.00000000E+00 
D    1    1.000000
   9.13000000E-01    1.00000000E+00 

11    0
S    1    1.000000
   4.56324000E+03    1.96665000E-03 
S    1    1.000000
   6.82024000E+02    1.52306000E-02 
S    1    1.000000
   1.54973000E+02    7.61269000E-02 
S    1    1.000000
   4.44553000E+01    2.60801000E-01 
S    1    1.000000
   1.30290000E+01    6.16462000E-01 
S    1    1.000000
   1.82773000E+00    2.21006000E-01 
SP   3    1.000000
   2.09642000E+01    1.14660000E-01   4.02487000E-02 
   4.80331000E+00    9.19999000E-01   2.37594000E-01 
   1.45933000E+00   -3.03068000E-03   8.15854000E-01 
SP   1    1.000000
   4.83456000E-01    1.00000000E+00   1.00000000E+00 
SP   1    1.000000
   1.45585000E-01    1.00000000E+00   1.00000000E+00 
SP   1    1.000000
   4.38000000E-02    1.00000000E+00   1.00000000E+00 
SP   1    1.000000
   1.31927711E-02    1.00000000E+00   1.00000000E+00 
D    1    1.000000
   6.26000000E-01    1.00000000E+00 

12    0
S    3    1.000000
   3.38650000E+01    2.54938000E-02 
   5.09479000E+00    1.90373000E-01 
   1.15879000E+00    8.52161000E-01 
S    1    1.000000
   3.25840000E-01    1.00000000E+00 
S    1    1.000000
   1.02741000E-01    1.00000000E+00 
S    1    1.000000
   3.60000000E-02    1.00000000E+00 
P    1    1.000000
   7.50000000E-01    1.00000000E+00 

[MO]
Sym=X
Ene=0.046635
Spin=Alpha
Occup=1
1    -0.00110903357
2    -0.00858572878
3    -0.0428291985
4    -0.147046397
5    -0.347367626
6    -0.126668084
7    -0.465170666
8    0.00111598001
9    -0.000314047963
10    8.92825033e-16
11    -0.00166339451
12    -0.00105367554
13    6.97444414e-05
14    -2.39483524e-15
15    -0.00149129226
16    0.000297468733
17    -0.000864927325
18    8.61576229e-15
19    -0.000967981682
20    0.000699708227
21    -0.000595367555
22    -8.65925862e-14
23    0.00014843379
24    -7.37065936e-05
25    2.45251003e-05
26    6.17896707e-14
27    -0.000359971879
28    3.26683504e-16
29    0.000237144754
30    -8.58388627e-17
31    -8.63442291e-05
32    -2.86675189e-05
33    -5.08069054e-05
34    -3.36420735e-05
35    0.000108746979
36    -4.64711666e-05
37    -1.56066161e-05
38    2.57192033e-16
39    -0.000379717327
40    -0.000461817515
41    -0.000246030292
42    -0.000151301193
43    -4.07421147e-05
44    -0.000306721881
45    1.41624747e-16
46    -1.20188853e-05
47    5.79194885e-05
48    -0.000239754184
49    -0.000251249573
50    -5.59944382e-06
51    -4.94274317e-06
52    -7.26982633e-16
53    -5.47059994e-06
54    -4.23814085e-05
55    -0.000211205367
56    -0.00072593653
57    -0.00170607309
58    -0.000577279468
59    -0.00231962518
60    1.7444174e-06
61    -1.91156253e-05
62    -2.24389221e-15
63    -0.000115336453
64    -1.46572745e-05
65    8.14251377e-05
66    -2.1578343e-16
67    -0.000247204725
68    0.000620427079
69    -0.000392477988
70    -4.7719277e-15
71    -0.000667435129
72    0.000317922597
73    -0.000582451448
74    -9.81796378e-14
75    -0.000506001633
76    -0.000178419632
77    -8.3276149e-06
78    -7.87778506e-14
79    1.96450825e-05
80    -5.05531159e-16
81    -2.65374683e-06
82    6.80268017e-16
83    4.40457518e-05
84    -4.49791532e-08
85    -3.68300278e-07
86    -1.61579107e-06
87    -6.20730021e-06
88    -8.51118667e-06
89    1.90678923e-05
90    -3.54249858e-05
91    3.00072419e-06
92    -1.21516135e-06
93    -1.51902934e-15
94    -7.23333033e-05
95    -2.86207295e-05
96    2.73909208e-05
97    -1.43321092e-15
98    0.000302882571
99    0.000156817305
100    -8.6803394e-05
101    -6.82823504e-15
102    0.00100943568
103    0.000155593889
104    -0.000134848412
105    7.72920034e-15
106    0.00135420556
107    0.000277393949
108    -4.39140018e-05
109    2.59400488e-14
110    3.51983567e-06
111    7.7870381e-16
112    -1.11968353e-07
113    -4.68610419e-16
114    4.86327987e-06
115    9.92831985e-06
116    7.68084138e-05
117    0.000383533429
118    0.00131528633
119    0.00312086601
120    0.00118560909
121    0.00413111305
122    -1.39141185e-05
123    -2.30759339e-05
124    -2.73609331e-16
125    -6.92851322e-05
126    3.7445451e-05
127    0.00010422776
128    -3.8538471e-16
129    -0.000214625164
130    0.000198785651
131    0.000143684405
132    4.03122135e-15
133    7.64869758e-05
134    -0.000236086327
135    -0.000188055612
136    -9.95631855e-14
137    -5.22964761e-05
138    -0.000194709543
139    7.32734867e-05
140    3.1878815e-14
141    -3.17263183e-05
142    1.48276389e-16
143    2.53519896e-06
144    3.38696171e-16
145    4.36307202e-05
146    -1.12044478e-08
147    -8.2117105e-08
148    -4.26081879e-07
149    -1.36713012e-06
150    -4.23012655e-06
151    -5.45963755e-06
152    -3.45555268e-06
153    -2.40492401e-06
154    -3.35375227e-06
155    -5.46976859e-16
156    1.45529537e-05
157    1.69942394e-06
158    1.6333282e-05
159    2.71471144e-15
160    -0.000114922861
161    3.89180372e-06
162    4.97345427e-07
163    -7.15712105e-15
164    8.93512614e-05
165    6.86848217e-06
166    1.33975505e-05
167    1.91189557e-14
168    -7.37061665e-05
169    -7.65262545e-07
170    5.05812048e-05
171    -3.87322045e-15
172    -1.45274573e-06
173    8.48337027e-17
174    2.55194892e-07
175    2.85018648e-16
176    7.12112994e-06
177    2.65215318e-07
178    1.98170524e-06
179    9.98019816e-06
180    3.28315595e-05
181    8.88227647e-05
182    6.9546985e-05
183    9.07622344e-05
184    6.98521939e-08
185    -7.89795439e-06
186    -2.37106818e-15
187    -6.54066877e-05
188    1.61037734e-05
189    2.81558611e-05
190    3.89654691e-15
191    -2.47515616e-05
192    4.20666822e-05
193    -2.72290154e-05
194    -1.97670155e-14
195    -8.00502708e-05
196    -0.0001857489
197    0.000535112562
198    6.67095703e-14
199    -0.000735586113
200    0.000314473923
201    0.000123376105
202    6.68175797e-14
203    -1.03125054e-05
204    2.38022802e-16
205    2.13156797e-06
206    3.96916019e-16
207    -5.05437723e-06
208    1.59824029e-06
209    1.19968716e-05
210    6.01426181e-05
211    0.000199500968
212    0.000528888996
213    0.000446686518
214    0.000617990478
215    -6.80654933e-05
216    4.0427666e-05
217    -2.91213106e-15
218    -0.000667794276
219    -0.000730334839
220    0.000439581295
221    6.67857404e-15
222    9.92110547e-05
223    1.95357902e-05
224    -7.73279259e-05
225    -2.22972167e-14
226    0.00134265119
227    0.000465692634
228    -0.000361625012
229    6.83909009e-14
230    0.000601586551
231    0.000321834041
232    -4.87851783e-05
233    2.77283517e-14
234    0.000327815827
235    -5.23966054e-17
236    0.000130515644
237    -1.71964701e-16
238    -0.000180783903
239    2.44416054e-05
240    0.000189373812
241    0.000943683271
242    0.00324459435
243    0.00762513984
244    0.0027154781
245    0.0103943519
246    0.000146350696
247    7.91959893e-05
248    -3.06444327e-16
249    -0.000126500825
250    0.000239045699
251    0.000107028893
252    2.51935864e-15
253    0.000839412469
254    -0.000609438814
255    0.000275703822
256    -1.05363468e-14
257    -0.000957082491
258    -5.22173819e-06
259    0.000670505676
260    9.75349781e-14
261    0.000233146492
262    0.000173201558
263    0.000117580244
264    -6.53846655e-14
265    -0.000162237484
266    -4.67954174e-16
267    -5.32884302e-05
268    6.55336216e-16
269    -0.000150155122
270    -1.7089563e-05
271    -1.15295126e-05
272    0.000364541534
273    0.000298230539
274    7.9213515e-05
275    1.88921863e-05
276    6.43837386e-16
[5D]