[Molden Format]
[Atoms] (Angs)
  C      1    6     -0.00714236     -1.70213747     -0.00000000
  H      2    1     -2.06882847     -1.44022412      0.00000000
  H      3    1     -0.12337987     -2.77567521      0.00000000
  H      4    1      0.04651892      1.98813947     -0.00000000
  C      5    6     -1.21953563      0.40211669      0.00000000
  O      6    8     -2.25921553      1.03043814      0.00000000
  C      7    6      1.28797806      0.34644937     -0.00000000
  O      8    8      2.31273661      1.00537216     -0.00000000
  N      9    7      0.03446295      0.97739857     -0.00000000
  N     10    7     -1.17287765     -0.98229824      0.00000000
  C     11    6      1.20107039     -1.10433419     -0.00000000
  H     12    1      2.11220096     -1.67699125     -0.00000000
[GTO]
1    0
S    1    1.000000
   4.56324000E+03    1.96665000E-03 
S    1    1.000000
   6.82024000E+02    1.52306000E-02 
S    1    1.000000
   1.54973000E+02    7.61269000E-02 
S    1    1.000000
   4.44553000E+01    2.60801000E-01 
S    1    1.000000
   1.30290000E+01    6.16462000E-01 
S    1    1.000000
   1.82773000E+00    2.21006000E-01 
SP   3    1.000000
   2.09642000E+01    1.14660000E-01   4.02487000E-02 
   4.80331000E+00    9.19999000E-01   2.37594000E-01 
   1.45933000E+00   -3.03068000E-03   8.15854000E-01 
SP   1    1.000000
   4.83456000E-01    1.00000000E+00   1.00000000E+00 
SP   1    1.000000
   1.45585000E-01    1.00000000E+00   1.00000000E+00 
SP   1    1.000000
   4.38000000E-02    1.00000000E+00   1.00000000E+00 
SP   1    1.000000
   1.31927711E-02    1.00000000E+00   1.00000000E+00 
D    1    1.000000
   6.26000000E-01    1.00000000E+00 

2    0
S    3    1.000000
   3.38650000E+01    2.54938000E-02 
   5.09479000E+00    1.90373000E-01 
   1.15879000E+00    8.52161000E-01 
S    1    1.000000
   3.25840000E-01    1.00000000E+00 
S    1    1.000000
   1.02741000E-01    1.00000000E+00 
S    1    1.000000
   3.60000000E-02    1.00000000E+00 
P    1    1.000000
   7.50000000E-01    1.00000000E+00 

3    0
S    3    1.000000
   3.38650000E+01    2.54938000E-02 
   5.09479000E+00    1.90373000E-01 
   1.15879000E+00    8.52161000E-01 
S    1    1.000000
   3.25840000E-01    1.00000000E+00 
S    1    1.000000
   1.02741000E-01    1.00000000E+00 
S    1    1.000000
   3.60000000E-02    1.00000000E+00 
P    1    1.000000
   7.50000000E-01    1.00000000E+00 

4    0
S    3    1.000000
   3.38650000E+01    2.54938000E-02 
   5.09479000E+00    1.90373000E-01 
   1.15879000E+00    8.52161000E-01 
S    1    1.000000
   3.25840000E-01    1.00000000E+00 
S    1    1.000000
   1.02741000E-01    1.00000000E+00 
S    1    1.000000
   3.60000000E-02    1.00000000E+00 
P    1    1.000000
   7.50000000E-01    1.00000000E+00 

5    0
S    1    1.000000
   4.56324000E+03    1.96665000E-03 
S    1    1.000000
   6.82024000E+02    1.52306000E-02 
S    1    1.000000
   1.54973000E+02    7.61269000E-02 
S    1    1.000000
   4.44553000E+01    2.60801000E-01 
S    1    1.000000
   1.30290000E+01    6.16462000E-01 
S    1    1.000000
   1.82773000E+00    2.21006000E-01 
SP   3    1.000000
   2.09642000E+01    1.14660000E-01   4.02487000E-02 
   4.80331000E+00    9.19999000E-01   2.37594000E-01 
   1.45933000E+00   -3.03068000E-03   8.15854000E-01 
SP   1    1.000000
   4.83456000E-01    1.00000000E+00   1.00000000E+00 
SP   1    1.000000
   1.45585000E-01    1.00000000E+00   1.00000000E+00 
SP   1    1.000000
   4.38000000E-02    1.00000000E+00   1.00000000E+00 
SP   1    1.000000
   1.31927711E-02    1.00000000E+00   1.00000000E+00 
D    1    1.000000
   6.26000000E-01    1.00000000E+00 

6    0
S    1    1.000000
   8.58850000E+03    1.89515000E-03 
S    1    1.000000
   1.29723000E+03    1.43859000E-02 
S    1    1.000000
   2.99296000E+02    7.07320000E-02 
S    1    1.000000
   8.73771000E+01    2.40001000E-01 
S    1    1.000000
   2.56789000E+01    5.94797000E-01 
S    1    1.000000
   3.74004000E+00    2.80802000E-01 
SP   3    1.000000
   4.21175000E+01    1.13889000E-01   3.65114000E-02 
   9.62837000E+00    9.20811000E-01   2.37153000E-01 
   2.85332000E+00   -3.27447000E-03   8.19702000E-01 
SP   1    1.000000
   9.05661000E-01    1.00000000E+00   1.00000000E+00 
SP   1    1.000000
   2.55611000E-01    1.00000000E+00   1.00000000E+00 
SP   1    1.000000
   8.45000000E-02    1.00000000E+00   1.00000000E+00 
SP   1    1.000000
   2.54518072E-02    1.00000000E+00   1.00000000E+00 
D    1    1.000000
   1.29200000E+00    1.00000000E+00 

7    0
S    1    1.000000
   4.56324000E+03    1.96665000E-03 
S    1    1.000000
   6.82024000E+02    1.52306000E-02 
S    1    1.000000
   1.54973000E+02    7.61269000E-02 
S    1    1.000000
   4.44553000E+01    2.60801000E-01 
S    1    1.000000
   1.30290000E+01    6.16462000E-01 
S    1    1.000000
   1.82773000E+00    2.21006000E-01 
SP   3    1.000000
   2.09642000E+01    1.14660000E-01   4.02487000E-02 
   4.80331000E+00    9.19999000E-01   2.37594000E-01 
   1.45933000E+00   -3.03068000E-03   8.15854000E-01 
SP   1    1.000000
   4.83456000E-01    1.00000000E+00   1.00000000E+00 
SP   1    1.000000
   1.45585000E-01    1.00000000E+00   1.00000000E+00 
SP   1    1.000000
   4.38000000E-02    1.00000000E+00   1.00000000E+00 
SP   1    1.000000
   1.31927711E-02    1.00000000E+00   1.00000000E+00 
D    1    1.000000
   6.26000000E-01    1.00000000E+00 

8    0
S    1    1.000000
   8.58850000E+03    1.89515000E-03 
S    1    1.000000
   1.29723000E+03    1.43859000E-02 
S    1    1.000000
   2.99296000E+02    7.07320000E-02 
S    1    1.000000
   8.73771000E+01    2.40001000E-01 
S    1    1.000000
   2.56789000E+01    5.94797000E-01 
S    1    1.000000
   3.74004000E+00    2.80802000E-01 
SP   3    1.000000
   4.21175000E+01    1.13889000E-01   3.65114000E-02 
   9.62837000E+00    9.20811000E-01   2.37153000E-01 
   2.85332000E+00   -3.27447000E-03   8.19702000E-01 
SP   1    1.000000
   9.05661000E-01    1.00000000E+00   1.00000000E+00 
SP   1    1.000000
   2.55611000E-01    1.00000000E+00   1.00000000E+00 
SP   1    1.000000
   8.45000000E-02    1.00000000E+00   1.00000000E+00 
SP   1    1.000000
   2.54518072E-02    1.00000000E+00   1.00000000E+00 
D    1    1.000000
   1.29200000E+00    1.00000000E+00 

9    0
S    1    1.000000
   6.29348000E+03    1.96979000E-03 
S    1    1.000000
   9.49044000E+02    1.49613000E-02 
S    1    1.000000
   2.18776000E+02    7.35006000E-02 
S    1    1.000000
   6.36916000E+01    2.48937000E-01 
S    1    1.000000
   1.88282000E+01    6.02460000E-01 
S    1    1.000000
   2.72023000E+00    2.56202000E-01 
SP   3    1.000000
   3.06331000E+01    1.11906000E-01   3.83119000E-02 
   7.02614000E+00    9.21666000E-01   2.37403000E-01 
   2.11205000E+00   -2.56919000E-03   8.17592000E-01 
SP   1    1.000000
   6.84009000E-01    1.00000000E+00   1.00000000E+00 
SP   1    1.000000
   2.00878000E-01    1.00000000E+00   1.00000000E+00 
SP   1    1.000000
   6.39000000E-02    1.00000000E+00   1.00000000E+00 
SP   1    1.000000
   1.92469880E-02    1.00000000E+00   1.00000000E+00 
D    1    1.000000
   9.13000000E-01    1.00000000E+00 

10    0
S    1    1.000000
   6.29348000E+03    1.96979000E-03 
S    1    1.000000
   9.49044000E+02    1.49613000E-02 
S    1    1.000000
   2.18776000E+02    7.35006000E-02 
S    1    1.000000
   6.36916000E+01    2.48937000E-01 
S    1    1.000000
   1.88282000E+01    6.02460000E-01 
S    1    1.000000
   2.72023000E+00    2.56202000E-01 
SP   3    1.000000
   3.06331000E+01    1.11906000E-01   3.83119000E-02 
   7.02614000E+00    9.21666000E-01   2.37403000E-01 
   2.11205000E+00   -2.56919000E-03   8.17592000E-01 
SP   1    1.000000
   6.84009000E-01    1.00000000E+00   1.00000000E+00 
SP   1    1.000000
   2.00878000E-01    1.00000000E+00   1.00000000E+00 
SP   1    1.000000
   6.39000000E-02    1.00000000E+00   1.00000000E+00 
SP   1    1.000000
   1.92469880E-02    1.00000000E+00   1.00000000E+00 
D    1    1.000000
   9.13000000E-01    1.00000000E+00 

11    0
S    1    1.000000
   4.56324000E+03    1.96665000E-03 
S    1    1.000000
   6.82024000E+02    1.52306000E-02 
S    1    1.000000
   1.54973000E+02    7.61269000E-02 
S    1    1.000000
   4.44553000E+01    2.60801000E-01 
S    1    1.000000
   1.30290000E+01    6.16462000E-01 
S    1    1.000000
   1.82773000E+00    2.21006000E-01 
SP   3    1.000000
   2.09642000E+01    1.14660000E-01   4.02487000E-02 
   4.80331000E+00    9.19999000E-01   2.37594000E-01 
   1.45933000E+00   -3.03068000E-03   8.15854000E-01 
SP   1    1.000000
   4.83456000E-01    1.00000000E+00   1.00000000E+00 
SP   1    1.000000
   1.45585000E-01    1.00000000E+00   1.00000000E+00 
SP   1    1.000000
   4.38000000E-02    1.00000000E+00   1.00000000E+00 
SP   1    1.000000
   1.31927711E-02    1.00000000E+00   1.00000000E+00 
D    1    1.000000
   6.26000000E-01    1.00000000E+00 

12    0
S    3    1.000000
   3.38650000E+01    2.54938000E-02 
   5.09479000E+00    1.90373000E-01 
   1.15879000E+00    8.52161000E-01 
S    1    1.000000
   3.25840000E-01    1.00000000E+00 
S    1    1.000000
   1.02741000E-01    1.00000000E+00 
S    1    1.000000
   3.60000000E-02    1.00000000E+00 
P    1    1.000000
   7.50000000E-01    1.00000000E+00 

[MO]
Sym=X
Ene=0.946458
Spin=Alpha
Occup=1
1    1.32404357e-05
2    0.000102581809
3    0.00051129965
4    0.00175791331
5    0.00413420796
6    0.00154722976
7    0.00565417112
8    -0.000148842529
9    -7.18503694e-05
10    -2.54320361e-15
11    -0.00048497646
12    -0.000547469182
13    -0.000299137438
14    -2.18657774e-15
15    0.00101272775
16    0.00028509585
17    0.000624582427
18    -3.57354577e-15
19    0.00257368974
20    0.000126207155
21    0.00137445244
22    -6.24449751e-14
23    0.000219537723
24    -1.47974802e-06
25    0.000257737306
26    6.54563689e-14
27    -0.000292049576
28    2.97646387e-16
29    2.01057971e-05
30    -1.65211906e-15
31    -0.00020854228
32    -6.67192043e-06
33    -5.67537409e-05
34    -9.60396556e-05
35    -0.000313171782
36    -1.47589929e-05
37    4.88870502e-06
38    3.37331104e-16
39    -2.44852875e-05
40    -6.0885056e-05
41    0.000412780969
42    0.00069143721
43    -5.79714707e-05
44    -6.4700646e-05
45    -1.20261625e-15
46    -1.2638675e-05
47    -4.00418735e-05
48    -2.33451967e-05
49    -0.000253573214
50    -5.81025339e-06
51    4.57993328e-06
52    2.5975783e-15
53    -5.94323188e-08
54    -4.84944984e-07
55    -2.23979833e-06
56    -8.3877885e-06
57    -1.32705958e-05
58    2.05644338e-05
59    -4.07913862e-05
60    3.86737847e-06
61    -4.09168928e-06
62    3.98715555e-15
63    -7.16185032e-05
64    -9.78596789e-06
65    1.45718914e-05
66    1.08579956e-14
67    0.000607375813
68    0.000480923823
69    -0.000261053783
70    6.68066323e-15
71    -8.01330383e-05
72    0.000203869483
73    9.12793117e-05
74    -7.65526262e-14
75    -8.22858863e-05
76    7.20083827e-05
77    -4.58380297e-05
78    -6.48889705e-14
79    -3.67701346e-06
80    1.66953034e-15
81    -9.47660707e-06
82    -4.68028743e-16
83    -1.6423012e-06
84    5.63715014e-10
85    -3.68655015e-09
86    3.93668611e-08
87    -8.07282321e-08
88    1.91161653e-06
89    8.03318748e-06
90    -4.6663486e-06
91    2.58040493e-06
92    -6.75767772e-07
93    3.51848649e-15
94    -2.08863711e-05
95    -1.30858589e-05
96    4.94508872e-06
97    5.00586297e-15
98    9.70209588e-05
99    4.62853595e-05
100    -2.49224089e-05
101    7.9269437e-15
102    0.000546040945
103    0.000131255728
104    -8.61078184e-05
105    1.4954576e-14
106    0.000109541061
107    -5.54669675e-05
108    -0.000107637429
109    3.12917821e-14
110    3.97227931e-07
111    -4.84538862e-16
112    -1.17913883e-06
113    7.34724602e-16
114    -1.198769e-06
115    4.52282512e-06
116    3.49872036e-05
117    0.000174828993
118    0.000599743223
119    0.00142898214
120    0.00064678303
121    0.00190388409
122    3.77889296e-06
123    8.16124572e-05
124    -1.81556916e-17
125    -0.000548161992
126    3.85282239e-05
127    0.000634015826
128    -4.14025812e-15
129    0.000617692019
130    -0.000522435846
131    -0.000917944808
132    3.79135327e-15
133    0.00186519757
134    -0.000785460162
135    -0.00105411739
136    -7.9371206e-14
137    0.000309470858
138    7.00400579e-05
139    -1.82606961e-06
140    3.93747451e-14
141    -5.72900443e-05
142    8.72250822e-16
143    7.16692947e-05
144    -2.64192744e-15
145    0.000352680001
146    -6.07061987e-09
147    -8.22858077e-08
148    -1.48259628e-07
149    -1.46591943e-06
150    6.08505924e-06
151    3.51077119e-05
152    -2.76194568e-05
153    -8.34987327e-06
154    -2.39929304e-05
155    -1.9510251e-15
156    -7.14834078e-05
157    4.30942491e-05
158    4.16220938e-05
159    -1.08076206e-15
160    0.000196900314
161    -0.00012571956
162    -1.50066755e-06
163    -6.62592283e-15
164    0.000837868606
165    -0.000119119005
166    -4.8829016e-05
167    5.20873759e-15
168    0.00182044552
169    -0.000361864794
170    -0.000103860059
171    -5.02779239e-15
172    -2.73741834e-05
173    9.3173829e-17
174    1.20430776e-06
175    1.80817233e-16
176    2.53195237e-05
177    -8.40034065e-09
178    -1.07503179e-07
179    -2.18731857e-07
180    -1.93515919e-06
181    6.52632567e-06
182    4.11255261e-05
183    -3.23047624e-05
184    2.41271939e-05
185    -1.42286679e-05
186    1.06115599e-15
187    -4.80200587e-05
188    -8.61500532e-05
189    3.70154971e-05
190    1.05766022e-14
191    -0.000289237325
192    0.000195268961
193    0.00022093319
194    -1.16328608e-14
195    -0.000660682649
196    0.000253865605
197    0.000297646914
198    6.21166111e-14
199    -0.000721385019
200    -0.000591817696
201    0.00019459151
202    4.02014581e-14
203    3.40587298e-05
204    -1.4622296e-16
205    4.2288679e-06
206    -1.49330395e-15
207    -1.58244075e-05
208    -1.23751133e-08
209    -1.41102802e-07
210    -3.59480612e-07
211    -2.51230426e-06
212    5.84349423e-06
213    4.17448529e-05
214    -3.55179276e-05
215    2.75143031e-05
216    -9.02995196e-06
217    -1.09714201e-15
218    -5.08014728e-05
219    -8.72717282e-05
220    3.78430046e-05
221    6.36549108e-15
222    -0.000301923519
223    -0.000155838556
224    -0.000188483997
225    -1.01923249e-14
226    -0.000998356848
227    -0.0004235227
228    -0.000261900309
229    5.67172778e-14
230    -0.000570799172
231    -4.92515074e-05
232    -0.000224241224
233    1.09224134e-14
234    2.29372101e-05
235    1.40288166e-15
236    1.02406455e-05
237    -6.28589664e-16
238    -3.82625437e-05
239    -0.00110905876
240    -0.00858604594
241    -0.042829742
242    -0.147055424
243    -0.347374222
244    -0.127043089
245    -0.465000219
246    0.000180361743
247    -0.000232424912
248    -3.55356089e-15
249    -0.00182143287
250    3.87685108e-05
251    0.000148352833
252    -1.61285074e-15
253    -0.00186965139
254    0.000801680419
255    -0.000609534348
256    -1.52375123e-14
257    -0.004602004
258    0.00101483222
259    -0.00101708864
260    7.08953333e-14
261    -0.000265648231
262    -9.75043165e-05
263    -0.000223464157
264    -8.40596137e-14
265    -6.52952506e-05
266    -1.9794504e-17
267    9.58430169e-05
268    1.91316369e-16
269    -8.32302297e-05
270    -0.00037809969
271    -0.000450186378
272    -0.000289099
273    -0.000474433141
274    0.000265484904
275    -0.000153335082
276    -1.57629943e-15
[5D]