[Molden Format]
[Atoms] (Angs)
  C      1    6     -0.00714236     -1.70213747     -0.00000000
  H      2    1     -2.06882847     -1.44022412      0.00000000
  H      3    1     -0.12337987     -2.77567521      0.00000000
  H      4    1      0.04651892      1.98813947     -0.00000000
  C      5    6     -1.21953563      0.40211669      0.00000000
  O      6    8     -2.25921553      1.03043814      0.00000000
  C      7    6      1.28797806      0.34644937     -0.00000000
  O      8    8      2.31273661      1.00537216     -0.00000000
  N      9    7      0.03446295      0.97739857     -0.00000000
  N     10    7     -1.17287765     -0.98229824      0.00000000
  C     11    6      1.20107039     -1.10433419     -0.00000000
  H     12    1      2.11220096     -1.67699125     -0.00000000
[GTO]
1    0
S    1    1.000000
   4.56324000E+03    1.96665000E-03 
S    1    1.000000
   6.82024000E+02    1.52306000E-02 
S    1    1.000000
   1.54973000E+02    7.61269000E-02 
S    1    1.000000
   4.44553000E+01    2.60801000E-01 
S    1    1.000000
   1.30290000E+01    6.16462000E-01 
S    1    1.000000
   1.82773000E+00    2.21006000E-01 
SP   3    1.000000
   2.09642000E+01    1.14660000E-01   4.02487000E-02 
   4.80331000E+00    9.19999000E-01   2.37594000E-01 
   1.45933000E+00   -3.03068000E-03   8.15854000E-01 
SP   1    1.000000
   4.83456000E-01    1.00000000E+00   1.00000000E+00 
SP   1    1.000000
   1.45585000E-01    1.00000000E+00   1.00000000E+00 
SP   1    1.000000
   4.38000000E-02    1.00000000E+00   1.00000000E+00 
SP   1    1.000000
   1.31927711E-02    1.00000000E+00   1.00000000E+00 
D    1    1.000000
   6.26000000E-01    1.00000000E+00 

2    0
S    3    1.000000
   3.38650000E+01    2.54938000E-02 
   5.09479000E+00    1.90373000E-01 
   1.15879000E+00    8.52161000E-01 
S    1    1.000000
   3.25840000E-01    1.00000000E+00 
S    1    1.000000
   1.02741000E-01    1.00000000E+00 
S    1    1.000000
   3.60000000E-02    1.00000000E+00 
P    1    1.000000
   7.50000000E-01    1.00000000E+00 

3    0
S    3    1.000000
   3.38650000E+01    2.54938000E-02 
   5.09479000E+00    1.90373000E-01 
   1.15879000E+00    8.52161000E-01 
S    1    1.000000
   3.25840000E-01    1.00000000E+00 
S    1    1.000000
   1.02741000E-01    1.00000000E+00 
S    1    1.000000
   3.60000000E-02    1.00000000E+00 
P    1    1.000000
   7.50000000E-01    1.00000000E+00 

4    0
S    3    1.000000
   3.38650000E+01    2.54938000E-02 
   5.09479000E+00    1.90373000E-01 
   1.15879000E+00    8.52161000E-01 
S    1    1.000000
   3.25840000E-01    1.00000000E+00 
S    1    1.000000
   1.02741000E-01    1.00000000E+00 
S    1    1.000000
   3.60000000E-02    1.00000000E+00 
P    1    1.000000
   7.50000000E-01    1.00000000E+00 

5    0
S    1    1.000000
   4.56324000E+03    1.96665000E-03 
S    1    1.000000
   6.82024000E+02    1.52306000E-02 
S    1    1.000000
   1.54973000E+02    7.61269000E-02 
S    1    1.000000
   4.44553000E+01    2.60801000E-01 
S    1    1.000000
   1.30290000E+01    6.16462000E-01 
S    1    1.000000
   1.82773000E+00    2.21006000E-01 
SP   3    1.000000
   2.09642000E+01    1.14660000E-01   4.02487000E-02 
   4.80331000E+00    9.19999000E-01   2.37594000E-01 
   1.45933000E+00   -3.03068000E-03   8.15854000E-01 
SP   1    1.000000
   4.83456000E-01    1.00000000E+00   1.00000000E+00 
SP   1    1.000000
   1.45585000E-01    1.00000000E+00   1.00000000E+00 
SP   1    1.000000
   4.38000000E-02    1.00000000E+00   1.00000000E+00 
SP   1    1.000000
   1.31927711E-02    1.00000000E+00   1.00000000E+00 
D    1    1.000000
   6.26000000E-01    1.00000000E+00 

6    0
S    1    1.000000
   8.58850000E+03    1.89515000E-03 
S    1    1.000000
   1.29723000E+03    1.43859000E-02 
S    1    1.000000
   2.99296000E+02    7.07320000E-02 
S    1    1.000000
   8.73771000E+01    2.40001000E-01 
S    1    1.000000
   2.56789000E+01    5.94797000E-01 
S    1    1.000000
   3.74004000E+00    2.80802000E-01 
SP   3    1.000000
   4.21175000E+01    1.13889000E-01   3.65114000E-02 
   9.62837000E+00    9.20811000E-01   2.37153000E-01 
   2.85332000E+00   -3.27447000E-03   8.19702000E-01 
SP   1    1.000000
   9.05661000E-01    1.00000000E+00   1.00000000E+00 
SP   1    1.000000
   2.55611000E-01    1.00000000E+00   1.00000000E+00 
SP   1    1.000000
   8.45000000E-02    1.00000000E+00   1.00000000E+00 
SP   1    1.000000
   2.54518072E-02    1.00000000E+00   1.00000000E+00 
D    1    1.000000
   1.29200000E+00    1.00000000E+00 

7    0
S    1    1.000000
   4.56324000E+03    1.96665000E-03 
S    1    1.000000
   6.82024000E+02    1.52306000E-02 
S    1    1.000000
   1.54973000E+02    7.61269000E-02 
S    1    1.000000
   4.44553000E+01    2.60801000E-01 
S    1    1.000000
   1.30290000E+01    6.16462000E-01 
S    1    1.000000
   1.82773000E+00    2.21006000E-01 
SP   3    1.000000
   2.09642000E+01    1.14660000E-01   4.02487000E-02 
   4.80331000E+00    9.19999000E-01   2.37594000E-01 
   1.45933000E+00   -3.03068000E-03   8.15854000E-01 
SP   1    1.000000
   4.83456000E-01    1.00000000E+00   1.00000000E+00 
SP   1    1.000000
   1.45585000E-01    1.00000000E+00   1.00000000E+00 
SP   1    1.000000
   4.38000000E-02    1.00000000E+00   1.00000000E+00 
SP   1    1.000000
   1.31927711E-02    1.00000000E+00   1.00000000E+00 
D    1    1.000000
   6.26000000E-01    1.00000000E+00 

8    0
S    1    1.000000
   8.58850000E+03    1.89515000E-03 
S    1    1.000000
   1.29723000E+03    1.43859000E-02 
S    1    1.000000
   2.99296000E+02    7.07320000E-02 
S    1    1.000000
   8.73771000E+01    2.40001000E-01 
S    1    1.000000
   2.56789000E+01    5.94797000E-01 
S    1    1.000000
   3.74004000E+00    2.80802000E-01 
SP   3    1.000000
   4.21175000E+01    1.13889000E-01   3.65114000E-02 
   9.62837000E+00    9.20811000E-01   2.37153000E-01 
   2.85332000E+00   -3.27447000E-03   8.19702000E-01 
SP   1    1.000000
   9.05661000E-01    1.00000000E+00   1.00000000E+00 
SP   1    1.000000
   2.55611000E-01    1.00000000E+00   1.00000000E+00 
SP   1    1.000000
   8.45000000E-02    1.00000000E+00   1.00000000E+00 
SP   1    1.000000
   2.54518072E-02    1.00000000E+00   1.00000000E+00 
D    1    1.000000
   1.29200000E+00    1.00000000E+00 

9    0
S    1    1.000000
   6.29348000E+03    1.96979000E-03 
S    1    1.000000
   9.49044000E+02    1.49613000E-02 
S    1    1.000000
   2.18776000E+02    7.35006000E-02 
S    1    1.000000
   6.36916000E+01    2.48937000E-01 
S    1    1.000000
   1.88282000E+01    6.02460000E-01 
S    1    1.000000
   2.72023000E+00    2.56202000E-01 
SP   3    1.000000
   3.06331000E+01    1.11906000E-01   3.83119000E-02 
   7.02614000E+00    9.21666000E-01   2.37403000E-01 
   2.11205000E+00   -2.56919000E-03   8.17592000E-01 
SP   1    1.000000
   6.84009000E-01    1.00000000E+00   1.00000000E+00 
SP   1    1.000000
   2.00878000E-01    1.00000000E+00   1.00000000E+00 
SP   1    1.000000
   6.39000000E-02    1.00000000E+00   1.00000000E+00 
SP   1    1.000000
   1.92469880E-02    1.00000000E+00   1.00000000E+00 
D    1    1.000000
   9.13000000E-01    1.00000000E+00 

10    0
S    1    1.000000
   6.29348000E+03    1.96979000E-03 
S    1    1.000000
   9.49044000E+02    1.49613000E-02 
S    1    1.000000
   2.18776000E+02    7.35006000E-02 
S    1    1.000000
   6.36916000E+01    2.48937000E-01 
S    1    1.000000
   1.88282000E+01    6.02460000E-01 
S    1    1.000000
   2.72023000E+00    2.56202000E-01 
SP   3    1.000000
   3.06331000E+01    1.11906000E-01   3.83119000E-02 
   7.02614000E+00    9.21666000E-01   2.37403000E-01 
   2.11205000E+00   -2.56919000E-03   8.17592000E-01 
SP   1    1.000000
   6.84009000E-01    1.00000000E+00   1.00000000E+00 
SP   1    1.000000
   2.00878000E-01    1.00000000E+00   1.00000000E+00 
SP   1    1.000000
   6.39000000E-02    1.00000000E+00   1.00000000E+00 
SP   1    1.000000
   1.92469880E-02    1.00000000E+00   1.00000000E+00 
D    1    1.000000
   9.13000000E-01    1.00000000E+00 

11    0
S    1    1.000000
   4.56324000E+03    1.96665000E-03 
S    1    1.000000
   6.82024000E+02    1.52306000E-02 
S    1    1.000000
   1.54973000E+02    7.61269000E-02 
S    1    1.000000
   4.44553000E+01    2.60801000E-01 
S    1    1.000000
   1.30290000E+01    6.16462000E-01 
S    1    1.000000
   1.82773000E+00    2.21006000E-01 
SP   3    1.000000
   2.09642000E+01    1.14660000E-01   4.02487000E-02 
   4.80331000E+00    9.19999000E-01   2.37594000E-01 
   1.45933000E+00   -3.03068000E-03   8.15854000E-01 
SP   1    1.000000
   4.83456000E-01    1.00000000E+00   1.00000000E+00 
SP   1    1.000000
   1.45585000E-01    1.00000000E+00   1.00000000E+00 
SP   1    1.000000
   4.38000000E-02    1.00000000E+00   1.00000000E+00 
SP   1    1.000000
   1.31927711E-02    1.00000000E+00   1.00000000E+00 
D    1    1.000000
   6.26000000E-01    1.00000000E+00 

12    0
S    3    1.000000
   3.38650000E+01    2.54938000E-02 
   5.09479000E+00    1.90373000E-01 
   1.15879000E+00    8.52161000E-01 
S    1    1.000000
   3.25840000E-01    1.00000000E+00 
S    1    1.000000
   1.02741000E-01    1.00000000E+00 
S    1    1.000000
   3.60000000E-02    1.00000000E+00 
P    1    1.000000
   7.50000000E-01    1.00000000E+00 

[MO]
Sym=X
Ene=5.9e-05
Spin=Alpha
Occup=1
1    -0.000205170728
2    -0.00158829382
3    -0.00792338303
4    -0.02720154
5    -0.0642720736
6    -0.0233838422
7    -0.0859717994
8    8.11942369e-05
9    -0.000123149349
10    -5.517661e-16
11    -0.000817672789
12    -0.000727450601
13    -0.000295316518
14    8.3601084e-16
15    0.000740990013
16    0.00032706139
17    0.000417077401
18    1.19868263e-15
19    0.00192288109
20    0.000151229422
21    0.00103301632
22    -6.72791217e-14
23    0.000159056117
24    7.47629054e-06
25    0.000279707781
26    7.87258107e-14
27    -0.000348183931
28    6.22478907e-17
29    6.15762611e-05
30    5.82111281e-16
31    -0.0002140614
32    -2.17595426e-05
33    -5.59874734e-05
34    -0.000154392584
35    -0.000373443374
36    -3.16872112e-05
37    -2.23623925e-06
38    -1.26211543e-15
39    -9.97259983e-05
40    -0.000170402351
41    0.000350323515
42    0.000427721067
43    -6.41629624e-05
44    -0.000127488176
45    -1.08702005e-17
46    -2.93975396e-05
47    -4.89929743e-05
48    -7.77466816e-05
49    -0.000217061232
50    -2.14586662e-06
51    2.40480405e-05
52    6.55740205e-16
53    -0.000246281458
54    -0.00190661789
55    -0.00951110281
56    -0.0326544718
57    -0.0771379509
58    -0.02801606
59    -0.103343988
60    -0.000133940955
61    9.21600071e-05
62    -2.4351779e-15
63    -0.000467267765
64    0.000137895472
65    -7.75257073e-05
66    -1.90036528e-16
67    0.000211366979
68    0.000603509984
69    -0.000330208785
70    -7.1383149e-15
71    -0.000255137164
72    0.000442598012
73    -6.9866934e-05
74    -8.49359056e-14
75    0.000104022104
76    8.21234073e-05
77    -5.37597669e-05
78    -6.44048133e-14
79    6.04944563e-05
80    3.56543327e-16
81    4.36290018e-05
82    9.95098755e-16
83    -3.84473551e-05
84    6.31067435e-08
85    4.43265929e-07
86    2.48066697e-06
87    7.40019491e-06
88    2.73576778e-05
89    5.2417902e-05
90    2.56379829e-05
91    -4.35499633e-05
92    2.7251186e-05
93    -1.01840854e-15
94    -0.000174236505
95    -0.000140927576
96    8.12354492e-05
97    -2.74404915e-15
98    0.000249826074
99    0.000147119672
100    -8.64748276e-05
101    -3.62000923e-15
102    0.000861465051
103    0.000147738623
104    -8.79554024e-05
105    3.99071224e-15
106    0.000617982091
107    2.25108047e-05
108    -0.000184368167
109    2.94346925e-14
110    5.2766962e-05
111    1.71843739e-16
112    2.42576258e-05
113    -6.21098727e-16
114    -2.93635291e-05
115    -0.000266488298
116    -0.00206305482
117    -0.0102913346
118    -0.0353328397
119    -0.0834593089
120    -0.0302308932
121    -0.111801235
122    0.00017871314
123    -4.88486448e-05
124    2.91411358e-15
125    -0.0009334395
126    -0.00014309144
127    0.000668167744
128    1.17343104e-15
129    0.000144430711
130    -0.000462097406
131    -0.000956737276
132    1.25645681e-14
133    0.00159054391
134    -0.000719445607
135    -0.00142400796
136    -8.7843914e-14
137    0.000211510757
138    0.000129219325
139    2.92040279e-05
140    4.53179818e-14
141    -0.000139684407
142    2.23007482e-16
143    0.000128753412
144    3.35530329e-16
145    0.000340441163
146    1.80242875e-07
147    1.30959427e-06
148    6.90621897e-06
149    2.18055159e-05
150    6.97437371e-05
151    9.66450965e-05
152    6.2365633e-05
153    4.17148099e-05
154    1.04609886e-05
155    9.07129427e-16
156    -0.000228772425
157    0.000182639512
158    0.000133751232
159    4.96369159e-15
160    0.000255688689
161    -0.000186589701
162    -4.15013525e-05
163    -6.00778082e-16
164    0.00102977972
165    -0.000140551466
166    -2.0971998e-05
167    1.68531241e-14
168    0.00224034205
169    -0.000489651941
170    -0.000127652326
171    7.09501837e-15
172    -8.82083745e-05
173    -4.52947064e-16
174    2.92081018e-05
175    -3.53654351e-16
176    -4.27729314e-06
177    7.30764351e-08
178    4.33570869e-07
179    3.05429269e-06
180    7.01324971e-06
181    4.91763924e-05
182    0.000152124941
183    -2.69987878e-05
184    2.76972338e-05
185    4.44553902e-06
186    -1.92706778e-15
187    -0.000319180938
188    -0.000109295628
189    0.000185550369
190    5.95363818e-15
191    -0.000269654735
192    0.000187389447
193    0.000242372891
194    -1.85065757e-14
195    -0.000239478236
196    0.000342924942
197    0.000328027887
198    6.75228089e-14
199    -0.000925382166
200    -0.000627006536
201    0.000176832617
202    4.86088664e-14
203    4.50685982e-05
204    -1.74990457e-16
205    5.65552405e-05
206    5.62263446e-16
207    -0.000114638951
208    -1.62126567e-07
209    -1.35212334e-06
210    -5.73494618e-06
211    -2.26784575e-05
212    -2.39473173e-05
213    0.000116054862
214    -0.000125187673
215    1.23273813e-05
216    -1.80112505e-05
217    -3.21278508e-15
218    -0.000318688672
219    -0.000223725195
220    -3.63630142e-05
221    3.14214692e-15
222    -0.000242984331
223    -0.000148115245
224    -0.000161979414
225    -1.71989473e-14
226    -0.000598068617
227    -0.00043711556
228    -0.000282242894
229    5.8977038e-14
230    -0.000614215905
231    5.38945335e-05
232    -0.000371771538
233    1.3746012e-14
234    9.39344351e-05
235    -9.40070886e-17
236    5.84159089e-05
237    8.27007836e-17
238    -1.9678318e-07
239    -0.00102773547
240    -0.00795642774
241    -0.0396892191
242    -0.136271419
243    -0.321907933
244    -0.117727874
245    -0.430867257
246    0.000195036251
247    -0.000222090183
248    -1.71112188e-16
249    -0.00180862378
250    7.98604781e-05
251    3.47407578e-05
252    5.14714431e-15
253    -0.00155412081
254    0.000639735172
255    -0.000458781046
256    -8.50730816e-15
257    -0.00476320705
258    0.000809701153
259    -0.00104221895
260    9.21591883e-14
261    -0.000337484154
262    -9.82872113e-05
263    -0.000266400916
264    -8.44380978e-14
265    -0.000106644452
266    1.71597263e-16
267    8.37972937e-05
268    3.64347325e-16
269    -3.77930442e-05
270    -0.000362437388
271    -0.000455111758
272    -0.000155588761
273    -0.000425214654
274    0.000274609099
275    -0.000158306627
276    7.82716018e-16
[5D]