[Molden Format]
[Atoms] (Angs)
  C      1    6     -0.00714236     -1.70213747     -0.00000000
  H      2    1     -2.06882847     -1.44022412      0.00000000
  H      3    1     -0.12337987     -2.77567521      0.00000000
  H      4    1      0.04651892      1.98813947     -0.00000000
  C      5    6     -1.21953563      0.40211669      0.00000000
  O      6    8     -2.25921553      1.03043814      0.00000000
  C      7    6      1.28797806      0.34644937     -0.00000000
  O      8    8      2.31273661      1.00537216     -0.00000000
  N      9    7      0.03446295      0.97739857     -0.00000000
  N     10    7     -1.17287765     -0.98229824      0.00000000
  C     11    6      1.20107039     -1.10433419     -0.00000000
  H     12    1      2.11220096     -1.67699125     -0.00000000
[GTO]
1    0
S    1    1.000000
   4.56324000E+03    1.96665000E-03 
S    1    1.000000
   6.82024000E+02    1.52306000E-02 
S    1    1.000000
   1.54973000E+02    7.61269000E-02 
S    1    1.000000
   4.44553000E+01    2.60801000E-01 
S    1    1.000000
   1.30290000E+01    6.16462000E-01 
S    1    1.000000
   1.82773000E+00    2.21006000E-01 
SP   3    1.000000
   2.09642000E+01    1.14660000E-01   4.02487000E-02 
   4.80331000E+00    9.19999000E-01   2.37594000E-01 
   1.45933000E+00   -3.03068000E-03   8.15854000E-01 
SP   1    1.000000
   4.83456000E-01    1.00000000E+00   1.00000000E+00 
SP   1    1.000000
   1.45585000E-01    1.00000000E+00   1.00000000E+00 
SP   1    1.000000
   4.38000000E-02    1.00000000E+00   1.00000000E+00 
SP   1    1.000000
   1.31927711E-02    1.00000000E+00   1.00000000E+00 
D    1    1.000000
   6.26000000E-01    1.00000000E+00 

2    0
S    3    1.000000
   3.38650000E+01    2.54938000E-02 
   5.09479000E+00    1.90373000E-01 
   1.15879000E+00    8.52161000E-01 
S    1    1.000000
   3.25840000E-01    1.00000000E+00 
S    1    1.000000
   1.02741000E-01    1.00000000E+00 
S    1    1.000000
   3.60000000E-02    1.00000000E+00 
P    1    1.000000
   7.50000000E-01    1.00000000E+00 

3    0
S    3    1.000000
   3.38650000E+01    2.54938000E-02 
   5.09479000E+00    1.90373000E-01 
   1.15879000E+00    8.52161000E-01 
S    1    1.000000
   3.25840000E-01    1.00000000E+00 
S    1    1.000000
   1.02741000E-01    1.00000000E+00 
S    1    1.000000
   3.60000000E-02    1.00000000E+00 
P    1    1.000000
   7.50000000E-01    1.00000000E+00 

4    0
S    3    1.000000
   3.38650000E+01    2.54938000E-02 
   5.09479000E+00    1.90373000E-01 
   1.15879000E+00    8.52161000E-01 
S    1    1.000000
   3.25840000E-01    1.00000000E+00 
S    1    1.000000
   1.02741000E-01    1.00000000E+00 
S    1    1.000000
   3.60000000E-02    1.00000000E+00 
P    1    1.000000
   7.50000000E-01    1.00000000E+00 

5    0
S    1    1.000000
   4.56324000E+03    1.96665000E-03 
S    1    1.000000
   6.82024000E+02    1.52306000E-02 
S    1    1.000000
   1.54973000E+02    7.61269000E-02 
S    1    1.000000
   4.44553000E+01    2.60801000E-01 
S    1    1.000000
   1.30290000E+01    6.16462000E-01 
S    1    1.000000
   1.82773000E+00    2.21006000E-01 
SP   3    1.000000
   2.09642000E+01    1.14660000E-01   4.02487000E-02 
   4.80331000E+00    9.19999000E-01   2.37594000E-01 
   1.45933000E+00   -3.03068000E-03   8.15854000E-01 
SP   1    1.000000
   4.83456000E-01    1.00000000E+00   1.00000000E+00 
SP   1    1.000000
   1.45585000E-01    1.00000000E+00   1.00000000E+00 
SP   1    1.000000
   4.38000000E-02    1.00000000E+00   1.00000000E+00 
SP   1    1.000000
   1.31927711E-02    1.00000000E+00   1.00000000E+00 
D    1    1.000000
   6.26000000E-01    1.00000000E+00 

6    0
S    1    1.000000
   8.58850000E+03    1.89515000E-03 
S    1    1.000000
   1.29723000E+03    1.43859000E-02 
S    1    1.000000
   2.99296000E+02    7.07320000E-02 
S    1    1.000000
   8.73771000E+01    2.40001000E-01 
S    1    1.000000
   2.56789000E+01    5.94797000E-01 
S    1    1.000000
   3.74004000E+00    2.80802000E-01 
SP   3    1.000000
   4.21175000E+01    1.13889000E-01   3.65114000E-02 
   9.62837000E+00    9.20811000E-01   2.37153000E-01 
   2.85332000E+00   -3.27447000E-03   8.19702000E-01 
SP   1    1.000000
   9.05661000E-01    1.00000000E+00   1.00000000E+00 
SP   1    1.000000
   2.55611000E-01    1.00000000E+00   1.00000000E+00 
SP   1    1.000000
   8.45000000E-02    1.00000000E+00   1.00000000E+00 
SP   1    1.000000
   2.54518072E-02    1.00000000E+00   1.00000000E+00 
D    1    1.000000
   1.29200000E+00    1.00000000E+00 

7    0
S    1    1.000000
   4.56324000E+03    1.96665000E-03 
S    1    1.000000
   6.82024000E+02    1.52306000E-02 
S    1    1.000000
   1.54973000E+02    7.61269000E-02 
S    1    1.000000
   4.44553000E+01    2.60801000E-01 
S    1    1.000000
   1.30290000E+01    6.16462000E-01 
S    1    1.000000
   1.82773000E+00    2.21006000E-01 
SP   3    1.000000
   2.09642000E+01    1.14660000E-01   4.02487000E-02 
   4.80331000E+00    9.19999000E-01   2.37594000E-01 
   1.45933000E+00   -3.03068000E-03   8.15854000E-01 
SP   1    1.000000
   4.83456000E-01    1.00000000E+00   1.00000000E+00 
SP   1    1.000000
   1.45585000E-01    1.00000000E+00   1.00000000E+00 
SP   1    1.000000
   4.38000000E-02    1.00000000E+00   1.00000000E+00 
SP   1    1.000000
   1.31927711E-02    1.00000000E+00   1.00000000E+00 
D    1    1.000000
   6.26000000E-01    1.00000000E+00 

8    0
S    1    1.000000
   8.58850000E+03    1.89515000E-03 
S    1    1.000000
   1.29723000E+03    1.43859000E-02 
S    1    1.000000
   2.99296000E+02    7.07320000E-02 
S    1    1.000000
   8.73771000E+01    2.40001000E-01 
S    1    1.000000
   2.56789000E+01    5.94797000E-01 
S    1    1.000000
   3.74004000E+00    2.80802000E-01 
SP   3    1.000000
   4.21175000E+01    1.13889000E-01   3.65114000E-02 
   9.62837000E+00    9.20811000E-01   2.37153000E-01 
   2.85332000E+00   -3.27447000E-03   8.19702000E-01 
SP   1    1.000000
   9.05661000E-01    1.00000000E+00   1.00000000E+00 
SP   1    1.000000
   2.55611000E-01    1.00000000E+00   1.00000000E+00 
SP   1    1.000000
   8.45000000E-02    1.00000000E+00   1.00000000E+00 
SP   1    1.000000
   2.54518072E-02    1.00000000E+00   1.00000000E+00 
D    1    1.000000
   1.29200000E+00    1.00000000E+00 

9    0
S    1    1.000000
   6.29348000E+03    1.96979000E-03 
S    1    1.000000
   9.49044000E+02    1.49613000E-02 
S    1    1.000000
   2.18776000E+02    7.35006000E-02 
S    1    1.000000
   6.36916000E+01    2.48937000E-01 
S    1    1.000000
   1.88282000E+01    6.02460000E-01 
S    1    1.000000
   2.72023000E+00    2.56202000E-01 
SP   3    1.000000
   3.06331000E+01    1.11906000E-01   3.83119000E-02 
   7.02614000E+00    9.21666000E-01   2.37403000E-01 
   2.11205000E+00   -2.56919000E-03   8.17592000E-01 
SP   1    1.000000
   6.84009000E-01    1.00000000E+00   1.00000000E+00 
SP   1    1.000000
   2.00878000E-01    1.00000000E+00   1.00000000E+00 
SP   1    1.000000
   6.39000000E-02    1.00000000E+00   1.00000000E+00 
SP   1    1.000000
   1.92469880E-02    1.00000000E+00   1.00000000E+00 
D    1    1.000000
   9.13000000E-01    1.00000000E+00 

10    0
S    1    1.000000
   6.29348000E+03    1.96979000E-03 
S    1    1.000000
   9.49044000E+02    1.49613000E-02 
S    1    1.000000
   2.18776000E+02    7.35006000E-02 
S    1    1.000000
   6.36916000E+01    2.48937000E-01 
S    1    1.000000
   1.88282000E+01    6.02460000E-01 
S    1    1.000000
   2.72023000E+00    2.56202000E-01 
SP   3    1.000000
   3.06331000E+01    1.11906000E-01   3.83119000E-02 
   7.02614000E+00    9.21666000E-01   2.37403000E-01 
   2.11205000E+00   -2.56919000E-03   8.17592000E-01 
SP   1    1.000000
   6.84009000E-01    1.00000000E+00   1.00000000E+00 
SP   1    1.000000
   2.00878000E-01    1.00000000E+00   1.00000000E+00 
SP   1    1.000000
   6.39000000E-02    1.00000000E+00   1.00000000E+00 
SP   1    1.000000
   1.92469880E-02    1.00000000E+00   1.00000000E+00 
D    1    1.000000
   9.13000000E-01    1.00000000E+00 

11    0
S    1    1.000000
   4.56324000E+03    1.96665000E-03 
S    1    1.000000
   6.82024000E+02    1.52306000E-02 
S    1    1.000000
   1.54973000E+02    7.61269000E-02 
S    1    1.000000
   4.44553000E+01    2.60801000E-01 
S    1    1.000000
   1.30290000E+01    6.16462000E-01 
S    1    1.000000
   1.82773000E+00    2.21006000E-01 
SP   3    1.000000
   2.09642000E+01    1.14660000E-01   4.02487000E-02 
   4.80331000E+00    9.19999000E-01   2.37594000E-01 
   1.45933000E+00   -3.03068000E-03   8.15854000E-01 
SP   1    1.000000
   4.83456000E-01    1.00000000E+00   1.00000000E+00 
SP   1    1.000000
   1.45585000E-01    1.00000000E+00   1.00000000E+00 
SP   1    1.000000
   4.38000000E-02    1.00000000E+00   1.00000000E+00 
SP   1    1.000000
   1.31927711E-02    1.00000000E+00   1.00000000E+00 
D    1    1.000000
   6.26000000E-01    1.00000000E+00 

12    0
S    3    1.000000
   3.38650000E+01    2.54938000E-02 
   5.09479000E+00    1.90373000E-01 
   1.15879000E+00    8.52161000E-01 
S    1    1.000000
   3.25840000E-01    1.00000000E+00 
S    1    1.000000
   1.02741000E-01    1.00000000E+00 
S    1    1.000000
   3.60000000E-02    1.00000000E+00 
P    1    1.000000
   7.50000000E-01    1.00000000E+00 

[MO]
Sym=X
Ene=0.060638
Spin=Alpha
Occup=1
1    -3.16986364e-05
2    -0.000245361728
3    -0.0012242351
4    -0.00420216667
5    -0.00993713454
6    -0.00367049579
7    -0.0132691304
8    1.49365808e-05
9    -2.35279862e-05
10    7.45026602e-16
11    6.95500725e-05
12    8.73112605e-05
13    0.00010396448
14    -2.24857715e-15
15    -0.000124463466
16    -8.45245651e-05
17    8.02368824e-05
18    4.77566415e-15
19    -0.00176831493
20    2.73579573e-07
21    -0.000633780872
22    -3.20850046e-14
23    2.83267591e-05
24    9.30956097e-05
25    -0.000212143803
26    -5.3078249e-14
27    6.38575938e-05
28    8.68516556e-16
29    7.14647364e-06
30    -1.20182581e-15
31    1.03373008e-05
32    9.78295646e-06
33    -4.01134769e-05
34    0.000212615047
35    0.000327556653
36    1.79818929e-07
37    -4.92664257e-06
38    1.10018602e-15
39    -1.11048114e-05
40    7.63157326e-05
41    -4.56009321e-05
42    -2.17696711e-05
43    1.53676227e-05
44    1.07133728e-05
45    1.83597213e-16
46    3.42224733e-05
47    5.35077141e-05
48    0.000124418805
49    -0.000240426289
50    -1.24064644e-05
51    -4.17659867e-05
52    7.04501179e-16
53    5.0180327e-06
54    3.88752622e-05
55    0.000193732309
56    0.000665894381
57    0.0015653273
58    0.000534781978
59    0.00212611534
60    -1.45551489e-05
61    -4.2101593e-06
62    2.14881115e-15
63    7.83656884e-05
64    4.7994165e-05
65    6.74000281e-06
66    6.58847514e-15
67    -4.24237968e-05
68    -0.000457429755
69    0.000215357228
70    3.28733861e-15
71    0.000554348552
72    -0.000124793895
73    -0.000275184292
74    -2.32407309e-14
75    -0.000495308649
76    -0.000190978974
77    -5.74229487e-05
78    -1.20895878e-14
79    4.65228381e-06
80    2.69636397e-16
81    8.56457633e-07
82    -3.03136656e-18
83    4.53353059e-05
84    -4.01134208e-09
85    -1.77977557e-08
86    -1.80465371e-07
87    -2.67748173e-07
88    -3.96668985e-06
89    -1.3016327e-05
90    5.14103079e-06
91    -1.09613128e-08
92    2.62892342e-07
93    1.4288921e-15
94    3.74603329e-05
95    2.15314288e-05
96    -2.27577104e-06
97    2.83463916e-15
98    -0.000169328808
99    -7.92319677e-05
100    6.25166233e-05
101    2.19760876e-15
102    -0.000736103887
103    -0.000230037994
104    5.70490824e-05
105    9.65194077e-15
106    -0.000179966987
107    5.69788847e-05
108    0.000208004005
109    -1.04187025e-14
110    3.9804144e-06
111    3.02516458e-16
112    8.29899944e-07
113    5.16613276e-16
114    5.8512915e-06
115    0.00110906484
116    0.00858581206
117    0.0428309935
118    0.147046467
119    0.347399844
120    0.126392438
121    0.465274352
122    -0.000739788579
123    0.000490735904
124    -4.7893059e-16
125    0.00162468807
126    0.000805582505
127    -0.000240347444
128    3.56210998e-17
129    0.00151946701
130    -0.000281043506
131    0.000419502852
132    -1.72817312e-15
133    -0.00233326824
134    0.00014475426
135    0.0024057743
136    -3.89959236e-14
137    -0.000258169917
138    -0.000303848473
139    4.6850287e-05
140    -3.79516269e-15
141    0.00033395029
142    2.51633893e-16
143    -0.000254382749
144    -1.26555153e-15
145    -4.85756556e-05
146    -1.07704376e-07
147    -7.15286916e-07
148    -4.44448857e-06
149    -1.21188817e-05
150    -5.49230215e-05
151    -0.000155107847
152    -7.11253721e-05
153    -0.000205489381
154    -0.000137431544
155    -2.39797213e-16
156    0.000643790435
157    -0.000558194795
158    -0.000371129601
159    -1.91800237e-15
160    -0.000269154148
161    0.000229390506
162    0.000115370024
163    -3.19679895e-15
164    -0.000366573404
165    -6.9348934e-05
166    -0.000187640208
167    6.24401039e-15
168    -0.00221483659
169    0.000592375644
170    6.67382617e-05
171    -1.2265886e-14
172    0.000256400417
173    1.51681529e-16
174    -0.000114549221
175    1.04628998e-16
176    0.00011416722
177    -4.52291449e-07
178    -3.26001072e-06
179    -1.74028508e-05
180    -5.40521615e-05
181    -0.000179177779
182    -0.000284790128
183    -0.000120700237
184    4.45021555e-05
185    -3.9072761e-05
186    5.53636731e-16
187    0.000569956797
188    0.000691696723
189    -0.000329451763
190    5.84813981e-15
191    5.09377843e-05
192    -0.000159760014
193    -0.000158028612
194    -4.44361467e-15
195    -0.00125497306
196    -0.00101794273
197    -8.91138618e-07
198    2.82082625e-14
199    0.000413353275
200    0.000659090594
201    9.50492549e-05
202    1.34065799e-14
203    -0.000267571413
204    -1.63975678e-16
205    -0.000124085709
206    -6.13443409e-16
207    0.000216753088
208    2.72499961e-08
209    2.41829583e-07
210    9.41180682e-07
211    4.14928352e-06
212    1.46024183e-06
213    -2.67497685e-05
214    3.2937905e-05
215    -8.9989282e-06
216    -9.38512185e-08
217    5.61076214e-16
218    5.33283113e-05
219    6.90251586e-06
220    2.48421164e-05
221    3.97011563e-15
222    -8.04944345e-06
223    -2.51492349e-05
224    3.32770853e-05
225    -9.28355561e-16
226    0.000152902176
227    0.000470443568
228    6.67162316e-05
229    1.51183334e-14
230    0.000752909891
231    -1.37152516e-05
232    0.000351841735
233    4.48587443e-14
234    -1.38029124e-07
235    9.16333842e-16
236    -6.52335113e-07
237    -1.91990029e-16
238    -1.00879104e-05
239    3.39719083e-06
240    2.62628919e-05
241    0.000131190971
242    0.000449169229
243    0.00106632078
244    0.00035026372
245    0.00138253643
246    2.55969605e-06
247    9.17528614e-05
248    -7.25425253e-16
249    0.000292222361
250    8.06224793e-05
251    0.000491980659
252    -1.17888478e-15
253    -0.000172856811
254    3.15411997e-05
255    -0.000263989923
256    -3.88927581e-15
257    0.00596898879
258    -0.000260084138
259    0.00144676678
260    2.87239599e-14
261    0.000629056006
262    0.000103965248
263    0.000368708888
264    2.73847042e-14
265    3.07596206e-05
266    2.10140621e-16
267    -2.36724171e-05
268    -3.20720624e-16
269    -0.000287518741
270    2.47650111e-05
271    9.1163387e-05
272    -0.00016890811
273    0.000275083658
274    -3.44454135e-05
275    7.27130915e-05
276    -7.76024485e-16
[5D]