[Molden Format]
[Atoms] (Angs)
  C      1    6     -0.00714236     -1.70213747     -0.00000000
  H      2    1     -2.06882847     -1.44022412      0.00000000
  H      3    1     -0.12337987     -2.77567521      0.00000000
  H      4    1      0.04651892      1.98813947     -0.00000000
  C      5    6     -1.21953563      0.40211669      0.00000000
  O      6    8     -2.25921553      1.03043814      0.00000000
  C      7    6      1.28797806      0.34644937     -0.00000000
  O      8    8      2.31273661      1.00537216     -0.00000000
  N      9    7      0.03446295      0.97739857     -0.00000000
  N     10    7     -1.17287765     -0.98229824      0.00000000
  C     11    6      1.20107039     -1.10433419     -0.00000000
  H     12    1      2.11220096     -1.67699125     -0.00000000
[GTO]
1    0
S    1    1.000000
   4.56324000E+03    1.96665000E-03 
S    1    1.000000
   6.82024000E+02    1.52306000E-02 
S    1    1.000000
   1.54973000E+02    7.61269000E-02 
S    1    1.000000
   4.44553000E+01    2.60801000E-01 
S    1    1.000000
   1.30290000E+01    6.16462000E-01 
S    1    1.000000
   1.82773000E+00    2.21006000E-01 
SP   3    1.000000
   2.09642000E+01    1.14660000E-01   4.02487000E-02 
   4.80331000E+00    9.19999000E-01   2.37594000E-01 
   1.45933000E+00   -3.03068000E-03   8.15854000E-01 
SP   1    1.000000
   4.83456000E-01    1.00000000E+00   1.00000000E+00 
SP   1    1.000000
   1.45585000E-01    1.00000000E+00   1.00000000E+00 
SP   1    1.000000
   4.38000000E-02    1.00000000E+00   1.00000000E+00 
SP   1    1.000000
   1.31927711E-02    1.00000000E+00   1.00000000E+00 
D    1    1.000000
   6.26000000E-01    1.00000000E+00 

2    0
S    3    1.000000
   3.38650000E+01    2.54938000E-02 
   5.09479000E+00    1.90373000E-01 
   1.15879000E+00    8.52161000E-01 
S    1    1.000000
   3.25840000E-01    1.00000000E+00 
S    1    1.000000
   1.02741000E-01    1.00000000E+00 
S    1    1.000000
   3.60000000E-02    1.00000000E+00 
P    1    1.000000
   7.50000000E-01    1.00000000E+00 

3    0
S    3    1.000000
   3.38650000E+01    2.54938000E-02 
   5.09479000E+00    1.90373000E-01 
   1.15879000E+00    8.52161000E-01 
S    1    1.000000
   3.25840000E-01    1.00000000E+00 
S    1    1.000000
   1.02741000E-01    1.00000000E+00 
S    1    1.000000
   3.60000000E-02    1.00000000E+00 
P    1    1.000000
   7.50000000E-01    1.00000000E+00 

4    0
S    3    1.000000
   3.38650000E+01    2.54938000E-02 
   5.09479000E+00    1.90373000E-01 
   1.15879000E+00    8.52161000E-01 
S    1    1.000000
   3.25840000E-01    1.00000000E+00 
S    1    1.000000
   1.02741000E-01    1.00000000E+00 
S    1    1.000000
   3.60000000E-02    1.00000000E+00 
P    1    1.000000
   7.50000000E-01    1.00000000E+00 

5    0
S    1    1.000000
   4.56324000E+03    1.96665000E-03 
S    1    1.000000
   6.82024000E+02    1.52306000E-02 
S    1    1.000000
   1.54973000E+02    7.61269000E-02 
S    1    1.000000
   4.44553000E+01    2.60801000E-01 
S    1    1.000000
   1.30290000E+01    6.16462000E-01 
S    1    1.000000
   1.82773000E+00    2.21006000E-01 
SP   3    1.000000
   2.09642000E+01    1.14660000E-01   4.02487000E-02 
   4.80331000E+00    9.19999000E-01   2.37594000E-01 
   1.45933000E+00   -3.03068000E-03   8.15854000E-01 
SP   1    1.000000
   4.83456000E-01    1.00000000E+00   1.00000000E+00 
SP   1    1.000000
   1.45585000E-01    1.00000000E+00   1.00000000E+00 
SP   1    1.000000
   4.38000000E-02    1.00000000E+00   1.00000000E+00 
SP   1    1.000000
   1.31927711E-02    1.00000000E+00   1.00000000E+00 
D    1    1.000000
   6.26000000E-01    1.00000000E+00 

6    0
S    1    1.000000
   8.58850000E+03    1.89515000E-03 
S    1    1.000000
   1.29723000E+03    1.43859000E-02 
S    1    1.000000
   2.99296000E+02    7.07320000E-02 
S    1    1.000000
   8.73771000E+01    2.40001000E-01 
S    1    1.000000
   2.56789000E+01    5.94797000E-01 
S    1    1.000000
   3.74004000E+00    2.80802000E-01 
SP   3    1.000000
   4.21175000E+01    1.13889000E-01   3.65114000E-02 
   9.62837000E+00    9.20811000E-01   2.37153000E-01 
   2.85332000E+00   -3.27447000E-03   8.19702000E-01 
SP   1    1.000000
   9.05661000E-01    1.00000000E+00   1.00000000E+00 
SP   1    1.000000
   2.55611000E-01    1.00000000E+00   1.00000000E+00 
SP   1    1.000000
   8.45000000E-02    1.00000000E+00   1.00000000E+00 
SP   1    1.000000
   2.54518072E-02    1.00000000E+00   1.00000000E+00 
D    1    1.000000
   1.29200000E+00    1.00000000E+00 

7    0
S    1    1.000000
   4.56324000E+03    1.96665000E-03 
S    1    1.000000
   6.82024000E+02    1.52306000E-02 
S    1    1.000000
   1.54973000E+02    7.61269000E-02 
S    1    1.000000
   4.44553000E+01    2.60801000E-01 
S    1    1.000000
   1.30290000E+01    6.16462000E-01 
S    1    1.000000
   1.82773000E+00    2.21006000E-01 
SP   3    1.000000
   2.09642000E+01    1.14660000E-01   4.02487000E-02 
   4.80331000E+00    9.19999000E-01   2.37594000E-01 
   1.45933000E+00   -3.03068000E-03   8.15854000E-01 
SP   1    1.000000
   4.83456000E-01    1.00000000E+00   1.00000000E+00 
SP   1    1.000000
   1.45585000E-01    1.00000000E+00   1.00000000E+00 
SP   1    1.000000
   4.38000000E-02    1.00000000E+00   1.00000000E+00 
SP   1    1.000000
   1.31927711E-02    1.00000000E+00   1.00000000E+00 
D    1    1.000000
   6.26000000E-01    1.00000000E+00 

8    0
S    1    1.000000
   8.58850000E+03    1.89515000E-03 
S    1    1.000000
   1.29723000E+03    1.43859000E-02 
S    1    1.000000
   2.99296000E+02    7.07320000E-02 
S    1    1.000000
   8.73771000E+01    2.40001000E-01 
S    1    1.000000
   2.56789000E+01    5.94797000E-01 
S    1    1.000000
   3.74004000E+00    2.80802000E-01 
SP   3    1.000000
   4.21175000E+01    1.13889000E-01   3.65114000E-02 
   9.62837000E+00    9.20811000E-01   2.37153000E-01 
   2.85332000E+00   -3.27447000E-03   8.19702000E-01 
SP   1    1.000000
   9.05661000E-01    1.00000000E+00   1.00000000E+00 
SP   1    1.000000
   2.55611000E-01    1.00000000E+00   1.00000000E+00 
SP   1    1.000000
   8.45000000E-02    1.00000000E+00   1.00000000E+00 
SP   1    1.000000
   2.54518072E-02    1.00000000E+00   1.00000000E+00 
D    1    1.000000
   1.29200000E+00    1.00000000E+00 

9    0
S    1    1.000000
   6.29348000E+03    1.96979000E-03 
S    1    1.000000
   9.49044000E+02    1.49613000E-02 
S    1    1.000000
   2.18776000E+02    7.35006000E-02 
S    1    1.000000
   6.36916000E+01    2.48937000E-01 
S    1    1.000000
   1.88282000E+01    6.02460000E-01 
S    1    1.000000
   2.72023000E+00    2.56202000E-01 
SP   3    1.000000
   3.06331000E+01    1.11906000E-01   3.83119000E-02 
   7.02614000E+00    9.21666000E-01   2.37403000E-01 
   2.11205000E+00   -2.56919000E-03   8.17592000E-01 
SP   1    1.000000
   6.84009000E-01    1.00000000E+00   1.00000000E+00 
SP   1    1.000000
   2.00878000E-01    1.00000000E+00   1.00000000E+00 
SP   1    1.000000
   6.39000000E-02    1.00000000E+00   1.00000000E+00 
SP   1    1.000000
   1.92469880E-02    1.00000000E+00   1.00000000E+00 
D    1    1.000000
   9.13000000E-01    1.00000000E+00 

10    0
S    1    1.000000
   6.29348000E+03    1.96979000E-03 
S    1    1.000000
   9.49044000E+02    1.49613000E-02 
S    1    1.000000
   2.18776000E+02    7.35006000E-02 
S    1    1.000000
   6.36916000E+01    2.48937000E-01 
S    1    1.000000
   1.88282000E+01    6.02460000E-01 
S    1    1.000000
   2.72023000E+00    2.56202000E-01 
SP   3    1.000000
   3.06331000E+01    1.11906000E-01   3.83119000E-02 
   7.02614000E+00    9.21666000E-01   2.37403000E-01 
   2.11205000E+00   -2.56919000E-03   8.17592000E-01 
SP   1    1.000000
   6.84009000E-01    1.00000000E+00   1.00000000E+00 
SP   1    1.000000
   2.00878000E-01    1.00000000E+00   1.00000000E+00 
SP   1    1.000000
   6.39000000E-02    1.00000000E+00   1.00000000E+00 
SP   1    1.000000
   1.92469880E-02    1.00000000E+00   1.00000000E+00 
D    1    1.000000
   9.13000000E-01    1.00000000E+00 

11    0
S    1    1.000000
   4.56324000E+03    1.96665000E-03 
S    1    1.000000
   6.82024000E+02    1.52306000E-02 
S    1    1.000000
   1.54973000E+02    7.61269000E-02 
S    1    1.000000
   4.44553000E+01    2.60801000E-01 
S    1    1.000000
   1.30290000E+01    6.16462000E-01 
S    1    1.000000
   1.82773000E+00    2.21006000E-01 
SP   3    1.000000
   2.09642000E+01    1.14660000E-01   4.02487000E-02 
   4.80331000E+00    9.19999000E-01   2.37594000E-01 
   1.45933000E+00   -3.03068000E-03   8.15854000E-01 
SP   1    1.000000
   4.83456000E-01    1.00000000E+00   1.00000000E+00 
SP   1    1.000000
   1.45585000E-01    1.00000000E+00   1.00000000E+00 
SP   1    1.000000
   4.38000000E-02    1.00000000E+00   1.00000000E+00 
SP   1    1.000000
   1.31927711E-02    1.00000000E+00   1.00000000E+00 
D    1    1.000000
   6.26000000E-01    1.00000000E+00 

12    0
S    3    1.000000
   3.38650000E+01    2.54938000E-02 
   5.09479000E+00    1.90373000E-01 
   1.15879000E+00    8.52161000E-01 
S    1    1.000000
   3.25840000E-01    1.00000000E+00 
S    1    1.000000
   1.02741000E-01    1.00000000E+00 
S    1    1.000000
   3.60000000E-02    1.00000000E+00 
P    1    1.000000
   7.50000000E-01    1.00000000E+00 

[MO]
Sym=X
Ene=0.036869
Spin=Alpha
Occup=1
1    -0.00110907675
2    -0.00858605986
3    -0.042830866
4    -0.147052023
5    -0.347381632
6    -0.12667098
7    -0.46518456
8    0.00111041373
9    -0.000317309456
10    8.67799221e-16
11    -0.00168701319
12    -0.00107934409
13    5.53591112e-05
14    -2.2989101e-15
15    -0.00144813221
16    0.000311267857
17    -0.000839921548
18    8.6041894e-15
19    -0.000817925716
20    0.000708468316
21    -0.000520674143
22    -8.88019134e-14
23    0.000159115489
24    -7.60587366e-05
25    3.90710908e-05
26    6.57169541e-14
27    -0.000373700471
28    3.35536497e-16
29    0.000238252721
30    -5.669204e-17
31    -9.58197509e-05
32    -2.93679283e-05
33    -5.29832386e-05
34    -4.05377549e-05
35    9.15281837e-05
36    -4.71663462e-05
37    -1.5326214e-05
38    2.04134607e-16
39    -0.000380963574
40    -0.000465914854
41    -0.000227526261
42    -0.000115307149
43    -4.34957286e-05
44    -0.000309993538
45    1.36949007e-16
46    -1.28713384e-05
47    5.58645768e-05
48    -0.00024253542
49    -0.000259737995
50    -5.75255745e-06
51    -4.50336724e-06
52    -6.77643033e-16
53    -8.93215344e-09
54    -1.01485026e-07
55    -2.77071927e-07
56    -1.8186286e-06
57    5.07963213e-06
58    4.67103155e-05
59    -2.92833989e-05
60    5.25811904e-06
61    -2.14086809e-05
62    -2.3096154e-15
63    -0.000111833384
64    -1.94169282e-05
65    8.49806484e-05
66    -2.2398127e-16
67    -0.000212874879
68    0.000648590024
69    -0.000407650417
70    -4.92562407e-15
71    -0.000678111611
72    0.000325798105
73    -0.0005743338
74    -1.01613592e-13
75    -0.000506471608
76    -0.000172885305
77    -9.01387125e-06
78    -8.16609236e-14
79    1.8073846e-05
80    -4.88741896e-16
81    -4.27063547e-06
82    7.26806747e-16
83    4.4598069e-05
84    1.26151918e-08
85    6.97607729e-08
86    5.3170374e-07
87    1.10057766e-06
88    9.60772687e-06
89    2.75611086e-05
90    -9.89356504e-06
91    4.27338558e-06
92    -1.97079859e-06
93    -1.54623298e-15
94    -7.0496455e-05
95    -2.68791096e-05
96    2.61349404e-05
97    -1.53237691e-15
98    0.000307692485
99    0.000158632553
100    -8.79457786e-05
101    -6.94854938e-15
102    0.00104308802
103    0.000165316929
104    -0.00014007437
105    7.85776787e-15
106    0.00135945067
107    0.000274126547
108    -5.04391856e-05
109    2.74104189e-14
110    2.34196872e-06
111    7.81590943e-16
112    -7.45624619e-07
113    -4.86003984e-16
114    5.39313055e-06
115    -1.68374237e-06
116    -1.30873559e-05
117    -6.49059042e-05
118    -0.000224306638
119    -0.000515927003
120    -0.000132027239
121    -0.000740055975
122    -5.78528134e-06
123    -2.47787548e-05
124    -9.69891058e-17
125    -0.000110564099
126    3.04306522e-05
127    0.000134757802
128    -2.43274086e-16
129    -0.000204068338
130    0.000180954942
131    9.97068401e-05
132    4.61839995e-15
133    0.000197919558
134    -0.000273676802
135    -0.000264045077
136    -1.02152258e-13
137    -3.30872372e-05
138    -0.000188461506
139    7.18100919e-05
140    3.3976333e-14
141    -3.78343642e-05
142    1.60325331e-16
143    8.42673873e-06
144    3.54357393e-16
145    5.98252569e-05
146    -4.64476287e-09
147    -3.48545375e-08
148    -1.73556284e-07
149    -5.80440474e-07
150    -1.60570422e-06
151    -1.47504704e-06
152    -1.31436692e-06
153    -5.91443454e-07
154    -2.9455992e-06
155    -4.69936894e-16
156    4.74328486e-06
157    9.4552823e-06
158    2.21333916e-05
159    2.9582665e-15
160    -0.000104160337
161    -3.78423052e-06
162    -5.55624238e-07
163    -7.01615801e-15
164    0.000127217243
165    3.33133813e-06
166    1.37603908e-05
167    1.96642122e-14
168    2.89841864e-05
169    -2.28358978e-05
170    4.58175791e-05
171    -3.7185106e-15
172    -5.40426478e-06
173    5.63304654e-17
174    1.53141459e-06
175    2.56730641e-16
176    7.04164997e-06
177    -3.63821408e-08
178    -3.17961176e-07
179    -1.26348132e-06
180    -5.42404916e-06
181    -2.81797728e-06
182    3.33534953e-05
183    -3.96125604e-05
184    3.08689482e-07
185    -8.31412241e-06
186    -2.40872813e-15
187    -7.22068212e-05
188    1.90704713e-06
189    3.19144549e-05
190    4.1615941e-15
191    -3.81498897e-05
192    5.33170258e-05
193    -1.61383927e-05
194    -2.03435545e-14
195    -9.71723394e-05
196    -0.000161613299
197    0.000549297737
198    6.90909089e-14
199    -0.000771891324
200    0.000282075101
201    0.000130810392
202    6.85866708e-14
203    -4.87095964e-06
204    2.27774706e-16
205    3.1496377e-06
206    4.23750983e-16
207    -7.04064848e-06
208    -3.54295488e-07
209    -2.87163714e-06
210    -1.26965001e-05
211    -4.77950495e-05
212    -6.8552279e-05
213    0.000191660067
214    -0.000215226941
215    -6.71056484e-05
216    4.04759775e-05
217    -3.03320495e-15
218    -0.000676156282
219    -0.000734883529
220    0.000444776293
221    6.80679479e-15
222    8.65976142e-05
223    1.32958842e-05
224    -8.67654889e-05
225    -2.29546788e-14
226    0.00129218649
227    0.00044147691
228    -0.000376088833
229    7.06551894e-14
230    0.000566633154
231    0.000318710775
232    -6.13710933e-05
233    2.76065563e-14
234    0.000328948238
235    -5.53165605e-17
236    0.000130470577
237    -1.61288084e-16
238    -0.00018408685
239    -2.42125424e-05
240    -0.00018729345
241    -0.000935247698
242    -0.00320667516
243    -0.00761414551
244    -0.00285759059
245    -0.0100044986
246    0.000154369747
247    6.80780368e-05
248    -2.82374182e-16
249    -0.00020946429
250    0.000239949591
251    0.000108519319
252    2.77997535e-15
253    0.0007610854
254    -0.000576058976
255    0.00025243675
256    -1.07379159e-14
257    -0.00125155616
258    4.66760486e-05
259    0.000608103881
260    1.00592835e-13
261    0.000213734668
262    0.000167733143
263    0.000102829989
264    -6.9485277e-14
265    -0.000165473901
266    -4.46056262e-16
267    -4.88527824e-05
268    6.65773718e-16
269    -0.000150949669
270    -3.39348283e-05
271    -3.19777631e-05
272    0.000354196308
273    0.000274200376
274    9.12378121e-05
275    1.14545633e-05
276    6.87794629e-16
[5D]