[Molden Format]
[Atoms] (Angs)
  C      1    6     -0.00714236     -1.70213747     -0.00000000
  H      2    1     -2.06882847     -1.44022412      0.00000000
  H      3    1     -0.12337987     -2.77567521      0.00000000
  H      4    1      0.04651892      1.98813947     -0.00000000
  C      5    6     -1.21953563      0.40211669      0.00000000
  O      6    8     -2.25921553      1.03043814      0.00000000
  C      7    6      1.28797806      0.34644937     -0.00000000
  O      8    8      2.31273661      1.00537216     -0.00000000
  N      9    7      0.03446295      0.97739857     -0.00000000
  N     10    7     -1.17287765     -0.98229824      0.00000000
  C     11    6      1.20107039     -1.10433419     -0.00000000
  H     12    1      2.11220096     -1.67699125     -0.00000000
[GTO]
1    0
S    1    1.000000
   4.56324000E+03    1.96665000E-03 
S    1    1.000000
   6.82024000E+02    1.52306000E-02 
S    1    1.000000
   1.54973000E+02    7.61269000E-02 
S    1    1.000000
   4.44553000E+01    2.60801000E-01 
S    1    1.000000
   1.30290000E+01    6.16462000E-01 
S    1    1.000000
   1.82773000E+00    2.21006000E-01 
SP   3    1.000000
   2.09642000E+01    1.14660000E-01   4.02487000E-02 
   4.80331000E+00    9.19999000E-01   2.37594000E-01 
   1.45933000E+00   -3.03068000E-03   8.15854000E-01 
SP   1    1.000000
   4.83456000E-01    1.00000000E+00   1.00000000E+00 
SP   1    1.000000
   1.45585000E-01    1.00000000E+00   1.00000000E+00 
SP   1    1.000000
   4.38000000E-02    1.00000000E+00   1.00000000E+00 
SP   1    1.000000
   1.31927711E-02    1.00000000E+00   1.00000000E+00 
D    1    1.000000
   6.26000000E-01    1.00000000E+00 

2    0
S    3    1.000000
   3.38650000E+01    2.54938000E-02 
   5.09479000E+00    1.90373000E-01 
   1.15879000E+00    8.52161000E-01 
S    1    1.000000
   3.25840000E-01    1.00000000E+00 
S    1    1.000000
   1.02741000E-01    1.00000000E+00 
S    1    1.000000
   3.60000000E-02    1.00000000E+00 
P    1    1.000000
   7.50000000E-01    1.00000000E+00 

3    0
S    3    1.000000
   3.38650000E+01    2.54938000E-02 
   5.09479000E+00    1.90373000E-01 
   1.15879000E+00    8.52161000E-01 
S    1    1.000000
   3.25840000E-01    1.00000000E+00 
S    1    1.000000
   1.02741000E-01    1.00000000E+00 
S    1    1.000000
   3.60000000E-02    1.00000000E+00 
P    1    1.000000
   7.50000000E-01    1.00000000E+00 

4    0
S    3    1.000000
   3.38650000E+01    2.54938000E-02 
   5.09479000E+00    1.90373000E-01 
   1.15879000E+00    8.52161000E-01 
S    1    1.000000
   3.25840000E-01    1.00000000E+00 
S    1    1.000000
   1.02741000E-01    1.00000000E+00 
S    1    1.000000
   3.60000000E-02    1.00000000E+00 
P    1    1.000000
   7.50000000E-01    1.00000000E+00 

5    0
S    1    1.000000
   4.56324000E+03    1.96665000E-03 
S    1    1.000000
   6.82024000E+02    1.52306000E-02 
S    1    1.000000
   1.54973000E+02    7.61269000E-02 
S    1    1.000000
   4.44553000E+01    2.60801000E-01 
S    1    1.000000
   1.30290000E+01    6.16462000E-01 
S    1    1.000000
   1.82773000E+00    2.21006000E-01 
SP   3    1.000000
   2.09642000E+01    1.14660000E-01   4.02487000E-02 
   4.80331000E+00    9.19999000E-01   2.37594000E-01 
   1.45933000E+00   -3.03068000E-03   8.15854000E-01 
SP   1    1.000000
   4.83456000E-01    1.00000000E+00   1.00000000E+00 
SP   1    1.000000
   1.45585000E-01    1.00000000E+00   1.00000000E+00 
SP   1    1.000000
   4.38000000E-02    1.00000000E+00   1.00000000E+00 
SP   1    1.000000
   1.31927711E-02    1.00000000E+00   1.00000000E+00 
D    1    1.000000
   6.26000000E-01    1.00000000E+00 

6    0
S    1    1.000000
   8.58850000E+03    1.89515000E-03 
S    1    1.000000
   1.29723000E+03    1.43859000E-02 
S    1    1.000000
   2.99296000E+02    7.07320000E-02 
S    1    1.000000
   8.73771000E+01    2.40001000E-01 
S    1    1.000000
   2.56789000E+01    5.94797000E-01 
S    1    1.000000
   3.74004000E+00    2.80802000E-01 
SP   3    1.000000
   4.21175000E+01    1.13889000E-01   3.65114000E-02 
   9.62837000E+00    9.20811000E-01   2.37153000E-01 
   2.85332000E+00   -3.27447000E-03   8.19702000E-01 
SP   1    1.000000
   9.05661000E-01    1.00000000E+00   1.00000000E+00 
SP   1    1.000000
   2.55611000E-01    1.00000000E+00   1.00000000E+00 
SP   1    1.000000
   8.45000000E-02    1.00000000E+00   1.00000000E+00 
SP   1    1.000000
   2.54518072E-02    1.00000000E+00   1.00000000E+00 
D    1    1.000000
   1.29200000E+00    1.00000000E+00 

7    0
S    1    1.000000
   4.56324000E+03    1.96665000E-03 
S    1    1.000000
   6.82024000E+02    1.52306000E-02 
S    1    1.000000
   1.54973000E+02    7.61269000E-02 
S    1    1.000000
   4.44553000E+01    2.60801000E-01 
S    1    1.000000
   1.30290000E+01    6.16462000E-01 
S    1    1.000000
   1.82773000E+00    2.21006000E-01 
SP   3    1.000000
   2.09642000E+01    1.14660000E-01   4.02487000E-02 
   4.80331000E+00    9.19999000E-01   2.37594000E-01 
   1.45933000E+00   -3.03068000E-03   8.15854000E-01 
SP   1    1.000000
   4.83456000E-01    1.00000000E+00   1.00000000E+00 
SP   1    1.000000
   1.45585000E-01    1.00000000E+00   1.00000000E+00 
SP   1    1.000000
   4.38000000E-02    1.00000000E+00   1.00000000E+00 
SP   1    1.000000
   1.31927711E-02    1.00000000E+00   1.00000000E+00 
D    1    1.000000
   6.26000000E-01    1.00000000E+00 

8    0
S    1    1.000000
   8.58850000E+03    1.89515000E-03 
S    1    1.000000
   1.29723000E+03    1.43859000E-02 
S    1    1.000000
   2.99296000E+02    7.07320000E-02 
S    1    1.000000
   8.73771000E+01    2.40001000E-01 
S    1    1.000000
   2.56789000E+01    5.94797000E-01 
S    1    1.000000
   3.74004000E+00    2.80802000E-01 
SP   3    1.000000
   4.21175000E+01    1.13889000E-01   3.65114000E-02 
   9.62837000E+00    9.20811000E-01   2.37153000E-01 
   2.85332000E+00   -3.27447000E-03   8.19702000E-01 
SP   1    1.000000
   9.05661000E-01    1.00000000E+00   1.00000000E+00 
SP   1    1.000000
   2.55611000E-01    1.00000000E+00   1.00000000E+00 
SP   1    1.000000
   8.45000000E-02    1.00000000E+00   1.00000000E+00 
SP   1    1.000000
   2.54518072E-02    1.00000000E+00   1.00000000E+00 
D    1    1.000000
   1.29200000E+00    1.00000000E+00 

9    0
S    1    1.000000
   6.29348000E+03    1.96979000E-03 
S    1    1.000000
   9.49044000E+02    1.49613000E-02 
S    1    1.000000
   2.18776000E+02    7.35006000E-02 
S    1    1.000000
   6.36916000E+01    2.48937000E-01 
S    1    1.000000
   1.88282000E+01    6.02460000E-01 
S    1    1.000000
   2.72023000E+00    2.56202000E-01 
SP   3    1.000000
   3.06331000E+01    1.11906000E-01   3.83119000E-02 
   7.02614000E+00    9.21666000E-01   2.37403000E-01 
   2.11205000E+00   -2.56919000E-03   8.17592000E-01 
SP   1    1.000000
   6.84009000E-01    1.00000000E+00   1.00000000E+00 
SP   1    1.000000
   2.00878000E-01    1.00000000E+00   1.00000000E+00 
SP   1    1.000000
   6.39000000E-02    1.00000000E+00   1.00000000E+00 
SP   1    1.000000
   1.92469880E-02    1.00000000E+00   1.00000000E+00 
D    1    1.000000
   9.13000000E-01    1.00000000E+00 

10    0
S    1    1.000000
   6.29348000E+03    1.96979000E-03 
S    1    1.000000
   9.49044000E+02    1.49613000E-02 
S    1    1.000000
   2.18776000E+02    7.35006000E-02 
S    1    1.000000
   6.36916000E+01    2.48937000E-01 
S    1    1.000000
   1.88282000E+01    6.02460000E-01 
S    1    1.000000
   2.72023000E+00    2.56202000E-01 
SP   3    1.000000
   3.06331000E+01    1.11906000E-01   3.83119000E-02 
   7.02614000E+00    9.21666000E-01   2.37403000E-01 
   2.11205000E+00   -2.56919000E-03   8.17592000E-01 
SP   1    1.000000
   6.84009000E-01    1.00000000E+00   1.00000000E+00 
SP   1    1.000000
   2.00878000E-01    1.00000000E+00   1.00000000E+00 
SP   1    1.000000
   6.39000000E-02    1.00000000E+00   1.00000000E+00 
SP   1    1.000000
   1.92469880E-02    1.00000000E+00   1.00000000E+00 
D    1    1.000000
   9.13000000E-01    1.00000000E+00 

11    0
S    1    1.000000
   4.56324000E+03    1.96665000E-03 
S    1    1.000000
   6.82024000E+02    1.52306000E-02 
S    1    1.000000
   1.54973000E+02    7.61269000E-02 
S    1    1.000000
   4.44553000E+01    2.60801000E-01 
S    1    1.000000
   1.30290000E+01    6.16462000E-01 
S    1    1.000000
   1.82773000E+00    2.21006000E-01 
SP   3    1.000000
   2.09642000E+01    1.14660000E-01   4.02487000E-02 
   4.80331000E+00    9.19999000E-01   2.37594000E-01 
   1.45933000E+00   -3.03068000E-03   8.15854000E-01 
SP   1    1.000000
   4.83456000E-01    1.00000000E+00   1.00000000E+00 
SP   1    1.000000
   1.45585000E-01    1.00000000E+00   1.00000000E+00 
SP   1    1.000000
   4.38000000E-02    1.00000000E+00   1.00000000E+00 
SP   1    1.000000
   1.31927711E-02    1.00000000E+00   1.00000000E+00 
D    1    1.000000
   6.26000000E-01    1.00000000E+00 

12    0
S    3    1.000000
   3.38650000E+01    2.54938000E-02 
   5.09479000E+00    1.90373000E-01 
   1.15879000E+00    8.52161000E-01 
S    1    1.000000
   3.25840000E-01    1.00000000E+00 
S    1    1.000000
   1.02741000E-01    1.00000000E+00 
S    1    1.000000
   3.60000000E-02    1.00000000E+00 
P    1    1.000000
   7.50000000E-01    1.00000000E+00 

[MO]
Sym=X
Ene=0.020601
Spin=Alpha
Occup=1
1    0.000105133046
2    0.000813822064
3    0.00406010529
4    0.0139371903
5    0.0329423211
6    0.0119730123
7    0.043996269
8    2.94567379e-05
9    0.000105268431
10    3.3884861e-16
11    0.000661104894
12    0.000658410132
13    0.000290781455
14    -1.18390719e-15
15    -0.000850876543
16    -0.000316030178
17    -0.000531084083
18    -1.63922172e-15
19    -0.00246426644
20    -0.000201149528
21    -0.00130811611
22    6.75646077e-14
23    -0.0002352781
24    9.39611316e-06
25    -0.00025938936
26    -7.56615887e-14
27    0.000329642036
28    -3.35910743e-16
29    -4.53913915e-05
30    -7.74744678e-16
31    0.000217295024
32    9.71158236e-06
33    6.21733661e-05
34    9.88664954e-05
35    0.00029995173
36    1.96645451e-05
37    -3.21464035e-06
38    1.41180424e-15
39    6.49417751e-05
40    0.000109806761
41    -0.000385554665
42    -0.000675078666
43    6.21537485e-05
44    9.72393762e-05
45    1.15034266e-18
46    1.37520315e-05
47    3.35636636e-05
48    4.85704493e-05
49    0.000280480577
50    6.4374352e-06
51    -3.8610706e-06
52    -1.03540183e-15
53    -7.36569023e-07
54    -5.67411615e-06
55    -2.85077182e-05
56    -9.70898487e-05
57    -0.000236848297
58    -0.000116006706
59    -0.000290616146
60    -4.79556091e-06
61    6.67042763e-06
62    2.25452481e-15
63    8.15954739e-05
64    1.2096379e-05
65    -2.3921918e-05
66    1.95164236e-16
67    -0.000581396537
68    -0.00054517598
69    0.000302007266
70    5.95395046e-15
71    0.00014984358
72    -0.000236259618
73    -2.86722457e-05
74    9.19330684e-14
75    0.000138103257
76    -5.23565376e-05
77    4.65849107e-05
78    7.1572642e-14
79    1.89265515e-06
80    -4.52481186e-16
81    1.00337212e-05
82    -1.28140381e-15
83    -3.43471569e-06
84    -5.18323085e-09
85    -2.88345638e-08
86    -2.1765716e-07
87    -4.55312095e-07
88    -3.9286443e-06
89    -1.1266789e-05
90    4.20104147e-06
91    -3.17115216e-06
92    9.74578767e-07
93    9.76246784e-16
94    2.76712695e-05
95    1.54019014e-05
96    -7.46514228e-06
97    2.74829245e-15
98    -0.000128280593
99    -6.23881736e-05
100    3.37749771e-05
101    4.27541491e-15
102    -0.000650630837
103    -0.000147251451
104    0.000100325757
105    -4.50601717e-15
106    -0.000252460307
107    2.57264925e-05
108    0.000111371332
109    -3.01454878e-14
110    -4.93927777e-07
111    -3.1007343e-16
112    1.3288045e-06
113    5.11413802e-16
114    5.0203684e-07
115    -8.76616661e-06
116    -6.78315623e-05
117    -0.000338714165
118    -0.00116223713
119    -0.00275928937
120    -0.00113583679
121    -0.00368042527
122    -1.73829784e-07
123    -8.03854222e-05
124    -4.23105692e-15
125    0.000549664787
126    -4.46704559e-05
127    -0.000643090759
128    -3.79331312e-15
129    -0.000597902309
130    0.000500440784
131    0.000899293357
132    -1.44427146e-14
133    -0.0018663781
134    0.000808730888
135    0.00106588029
136    8.16214278e-14
137    -0.00030321567
138    -4.82526894e-05
139    -5.87914837e-06
140    -4.77991667e-14
141    5.96165655e-05
142    -3.33570741e-16
143    -7.10653183e-05
144    -4.27198491e-16
145    -0.000356484968
146    6.49325402e-08
147    5.29331277e-07
148    2.34611059e-06
149    8.92588617e-06
150    1.25652865e-05
151    -2.54428112e-05
152    5.40276782e-05
153    9.09284223e-06
154    2.46428579e-05
155    -1.96595754e-15
156    6.81562198e-05
157    -4.15097142e-05
158    -4.21808044e-05
159    -5.9875907e-15
160    -0.000183329998
161    0.000124281051
162    1.03777449e-06
163    -2.36435152e-15
164    -0.000843637093
165    0.000118079565
166    4.770147e-05
167    -1.7920327e-14
168    -0.00180178139
169    0.000359365656
170    9.79067692e-05
171    -2.5970729e-15
172    2.67307798e-05
173    6.50494285e-16
174    -9.05241126e-07
175    6.43605591e-16
176    -2.63630503e-05
177    -4.64101925e-08
178    -3.06584547e-07
179    -1.83301223e-06
180    -4.93888952e-06
181    -2.39482497e-05
182    -5.10692712e-05
183    1.10108164e-05
184    -2.41135737e-05
185    1.52146142e-05
186    1.37675613e-15
187    5.2479882e-05
188    8.30142918e-05
189    -3.8641474e-05
190    -7.41938893e-15
191    0.000291205972
192    -0.000199109122
193    -0.000217058125
194    1.73052363e-14
195    0.000671661859
196    -0.000231170725
197    -0.000354231888
198    -6.88875528e-14
199    0.000796780828
200    0.000554957245
201    -0.000207553246
202    -5.02361871e-14
203    -3.23918246e-05
204    2.37648157e-16
205    -3.9722107e-06
206    -8.1640527e-16
207    1.54533846e-05
208    1.34069999e-07
209    1.08567161e-06
210    4.8453085e-06
211    1.82241014e-05
212    2.72789701e-05
213    -5.05828217e-05
214    9.38872229e-05
215    -2.01327619e-05
216    4.60118201e-06
217    3.49561419e-15
218    0.000122219924
219    0.000164957997
220    -8.55634554e-05
221    -3.19121748e-15
222    0.000290703265
223    0.000153431181
224    0.000196435182
225    1.83208174e-14
226    0.000853836177
227    0.00037175233
228    0.000300130407
229    -6.01773485e-14
230    0.000503626056
231    1.51870627e-05
232    0.000227629985
233    -1.51915671e-14
234    -5.78058546e-05
235    3.0760118e-17
236    -2.39920463e-05
237    -2.19477974e-16
238    5.78776544e-05
239    0.00110407427
240    0.00854744107
241    0.0426372724
242    0.146394109
243    0.345816237
244    0.126481243
245    0.462894824
246    -0.000195595052
247    0.000223223909
248    -6.40899528e-16
249    0.00183012791
250    -6.43510941e-05
251    -0.000160895615
252    -6.41584105e-15
253    0.001776454
254    -0.000734902418
255    0.000579511854
256    6.02432811e-15
257    0.00468364887
258    -0.00101239382
259    0.000939972548
260    -8.96635684e-14
261    0.000238638299
262    7.85615937e-05
263    0.000209617791
264    8.53784566e-14
265    8.23428538e-05
266    -5.73338132e-16
267    -8.98927991e-05
268    -3.11876476e-16
269    9.9902147e-05
270    0.000379038194
271    0.000450128889
272    0.000250063588
273    0.000440914435
274    -0.000273250873
275    0.000150773361
276    -1.09090758e-15
[5D]