[Molden Format]
[Atoms] (Angs)
  C      1    6     -0.00714236     -1.70213747     -0.00000000
  H      2    1     -2.06882847     -1.44022412      0.00000000
  H      3    1     -0.12337987     -2.77567521      0.00000000
  H      4    1      0.04651892      1.98813947     -0.00000000
  C      5    6     -1.21953563      0.40211669      0.00000000
  O      6    8     -2.25921553      1.03043814      0.00000000
  C      7    6      1.28797806      0.34644937     -0.00000000
  O      8    8      2.31273661      1.00537216     -0.00000000
  N      9    7      0.03446295      0.97739857     -0.00000000
  N     10    7     -1.17287765     -0.98229824      0.00000000
  C     11    6      1.20107039     -1.10433419     -0.00000000
  H     12    1      2.11220096     -1.67699125     -0.00000000
[GTO]
1    0
S    1    1.000000
   4.56324000E+03    1.96665000E-03 
S    1    1.000000
   6.82024000E+02    1.52306000E-02 
S    1    1.000000
   1.54973000E+02    7.61269000E-02 
S    1    1.000000
   4.44553000E+01    2.60801000E-01 
S    1    1.000000
   1.30290000E+01    6.16462000E-01 
S    1    1.000000
   1.82773000E+00    2.21006000E-01 
SP   3    1.000000
   2.09642000E+01    1.14660000E-01   4.02487000E-02 
   4.80331000E+00    9.19999000E-01   2.37594000E-01 
   1.45933000E+00   -3.03068000E-03   8.15854000E-01 
SP   1    1.000000
   4.83456000E-01    1.00000000E+00   1.00000000E+00 
SP   1    1.000000
   1.45585000E-01    1.00000000E+00   1.00000000E+00 
SP   1    1.000000
   4.38000000E-02    1.00000000E+00   1.00000000E+00 
SP   1    1.000000
   1.31927711E-02    1.00000000E+00   1.00000000E+00 
D    1    1.000000
   6.26000000E-01    1.00000000E+00 

2    0
S    3    1.000000
   3.38650000E+01    2.54938000E-02 
   5.09479000E+00    1.90373000E-01 
   1.15879000E+00    8.52161000E-01 
S    1    1.000000
   3.25840000E-01    1.00000000E+00 
S    1    1.000000
   1.02741000E-01    1.00000000E+00 
S    1    1.000000
   3.60000000E-02    1.00000000E+00 
P    1    1.000000
   7.50000000E-01    1.00000000E+00 

3    0
S    3    1.000000
   3.38650000E+01    2.54938000E-02 
   5.09479000E+00    1.90373000E-01 
   1.15879000E+00    8.52161000E-01 
S    1    1.000000
   3.25840000E-01    1.00000000E+00 
S    1    1.000000
   1.02741000E-01    1.00000000E+00 
S    1    1.000000
   3.60000000E-02    1.00000000E+00 
P    1    1.000000
   7.50000000E-01    1.00000000E+00 

4    0
S    3    1.000000
   3.38650000E+01    2.54938000E-02 
   5.09479000E+00    1.90373000E-01 
   1.15879000E+00    8.52161000E-01 
S    1    1.000000
   3.25840000E-01    1.00000000E+00 
S    1    1.000000
   1.02741000E-01    1.00000000E+00 
S    1    1.000000
   3.60000000E-02    1.00000000E+00 
P    1    1.000000
   7.50000000E-01    1.00000000E+00 

5    0
S    1    1.000000
   4.56324000E+03    1.96665000E-03 
S    1    1.000000
   6.82024000E+02    1.52306000E-02 
S    1    1.000000
   1.54973000E+02    7.61269000E-02 
S    1    1.000000
   4.44553000E+01    2.60801000E-01 
S    1    1.000000
   1.30290000E+01    6.16462000E-01 
S    1    1.000000
   1.82773000E+00    2.21006000E-01 
SP   3    1.000000
   2.09642000E+01    1.14660000E-01   4.02487000E-02 
   4.80331000E+00    9.19999000E-01   2.37594000E-01 
   1.45933000E+00   -3.03068000E-03   8.15854000E-01 
SP   1    1.000000
   4.83456000E-01    1.00000000E+00   1.00000000E+00 
SP   1    1.000000
   1.45585000E-01    1.00000000E+00   1.00000000E+00 
SP   1    1.000000
   4.38000000E-02    1.00000000E+00   1.00000000E+00 
SP   1    1.000000
   1.31927711E-02    1.00000000E+00   1.00000000E+00 
D    1    1.000000
   6.26000000E-01    1.00000000E+00 

6    0
S    1    1.000000
   8.58850000E+03    1.89515000E-03 
S    1    1.000000
   1.29723000E+03    1.43859000E-02 
S    1    1.000000
   2.99296000E+02    7.07320000E-02 
S    1    1.000000
   8.73771000E+01    2.40001000E-01 
S    1    1.000000
   2.56789000E+01    5.94797000E-01 
S    1    1.000000
   3.74004000E+00    2.80802000E-01 
SP   3    1.000000
   4.21175000E+01    1.13889000E-01   3.65114000E-02 
   9.62837000E+00    9.20811000E-01   2.37153000E-01 
   2.85332000E+00   -3.27447000E-03   8.19702000E-01 
SP   1    1.000000
   9.05661000E-01    1.00000000E+00   1.00000000E+00 
SP   1    1.000000
   2.55611000E-01    1.00000000E+00   1.00000000E+00 
SP   1    1.000000
   8.45000000E-02    1.00000000E+00   1.00000000E+00 
SP   1    1.000000
   2.54518072E-02    1.00000000E+00   1.00000000E+00 
D    1    1.000000
   1.29200000E+00    1.00000000E+00 

7    0
S    1    1.000000
   4.56324000E+03    1.96665000E-03 
S    1    1.000000
   6.82024000E+02    1.52306000E-02 
S    1    1.000000
   1.54973000E+02    7.61269000E-02 
S    1    1.000000
   4.44553000E+01    2.60801000E-01 
S    1    1.000000
   1.30290000E+01    6.16462000E-01 
S    1    1.000000
   1.82773000E+00    2.21006000E-01 
SP   3    1.000000
   2.09642000E+01    1.14660000E-01   4.02487000E-02 
   4.80331000E+00    9.19999000E-01   2.37594000E-01 
   1.45933000E+00   -3.03068000E-03   8.15854000E-01 
SP   1    1.000000
   4.83456000E-01    1.00000000E+00   1.00000000E+00 
SP   1    1.000000
   1.45585000E-01    1.00000000E+00   1.00000000E+00 
SP   1    1.000000
   4.38000000E-02    1.00000000E+00   1.00000000E+00 
SP   1    1.000000
   1.31927711E-02    1.00000000E+00   1.00000000E+00 
D    1    1.000000
   6.26000000E-01    1.00000000E+00 

8    0
S    1    1.000000
   8.58850000E+03    1.89515000E-03 
S    1    1.000000
   1.29723000E+03    1.43859000E-02 
S    1    1.000000
   2.99296000E+02    7.07320000E-02 
S    1    1.000000
   8.73771000E+01    2.40001000E-01 
S    1    1.000000
   2.56789000E+01    5.94797000E-01 
S    1    1.000000
   3.74004000E+00    2.80802000E-01 
SP   3    1.000000
   4.21175000E+01    1.13889000E-01   3.65114000E-02 
   9.62837000E+00    9.20811000E-01   2.37153000E-01 
   2.85332000E+00   -3.27447000E-03   8.19702000E-01 
SP   1    1.000000
   9.05661000E-01    1.00000000E+00   1.00000000E+00 
SP   1    1.000000
   2.55611000E-01    1.00000000E+00   1.00000000E+00 
SP   1    1.000000
   8.45000000E-02    1.00000000E+00   1.00000000E+00 
SP   1    1.000000
   2.54518072E-02    1.00000000E+00   1.00000000E+00 
D    1    1.000000
   1.29200000E+00    1.00000000E+00 

9    0
S    1    1.000000
   6.29348000E+03    1.96979000E-03 
S    1    1.000000
   9.49044000E+02    1.49613000E-02 
S    1    1.000000
   2.18776000E+02    7.35006000E-02 
S    1    1.000000
   6.36916000E+01    2.48937000E-01 
S    1    1.000000
   1.88282000E+01    6.02460000E-01 
S    1    1.000000
   2.72023000E+00    2.56202000E-01 
SP   3    1.000000
   3.06331000E+01    1.11906000E-01   3.83119000E-02 
   7.02614000E+00    9.21666000E-01   2.37403000E-01 
   2.11205000E+00   -2.56919000E-03   8.17592000E-01 
SP   1    1.000000
   6.84009000E-01    1.00000000E+00   1.00000000E+00 
SP   1    1.000000
   2.00878000E-01    1.00000000E+00   1.00000000E+00 
SP   1    1.000000
   6.39000000E-02    1.00000000E+00   1.00000000E+00 
SP   1    1.000000
   1.92469880E-02    1.00000000E+00   1.00000000E+00 
D    1    1.000000
   9.13000000E-01    1.00000000E+00 

10    0
S    1    1.000000
   6.29348000E+03    1.96979000E-03 
S    1    1.000000
   9.49044000E+02    1.49613000E-02 
S    1    1.000000
   2.18776000E+02    7.35006000E-02 
S    1    1.000000
   6.36916000E+01    2.48937000E-01 
S    1    1.000000
   1.88282000E+01    6.02460000E-01 
S    1    1.000000
   2.72023000E+00    2.56202000E-01 
SP   3    1.000000
   3.06331000E+01    1.11906000E-01   3.83119000E-02 
   7.02614000E+00    9.21666000E-01   2.37403000E-01 
   2.11205000E+00   -2.56919000E-03   8.17592000E-01 
SP   1    1.000000
   6.84009000E-01    1.00000000E+00   1.00000000E+00 
SP   1    1.000000
   2.00878000E-01    1.00000000E+00   1.00000000E+00 
SP   1    1.000000
   6.39000000E-02    1.00000000E+00   1.00000000E+00 
SP   1    1.000000
   1.92469880E-02    1.00000000E+00   1.00000000E+00 
D    1    1.000000
   9.13000000E-01    1.00000000E+00 

11    0
S    1    1.000000
   4.56324000E+03    1.96665000E-03 
S    1    1.000000
   6.82024000E+02    1.52306000E-02 
S    1    1.000000
   1.54973000E+02    7.61269000E-02 
S    1    1.000000
   4.44553000E+01    2.60801000E-01 
S    1    1.000000
   1.30290000E+01    6.16462000E-01 
S    1    1.000000
   1.82773000E+00    2.21006000E-01 
SP   3    1.000000
   2.09642000E+01    1.14660000E-01   4.02487000E-02 
   4.80331000E+00    9.19999000E-01   2.37594000E-01 
   1.45933000E+00   -3.03068000E-03   8.15854000E-01 
SP   1    1.000000
   4.83456000E-01    1.00000000E+00   1.00000000E+00 
SP   1    1.000000
   1.45585000E-01    1.00000000E+00   1.00000000E+00 
SP   1    1.000000
   4.38000000E-02    1.00000000E+00   1.00000000E+00 
SP   1    1.000000
   1.31927711E-02    1.00000000E+00   1.00000000E+00 
D    1    1.000000
   6.26000000E-01    1.00000000E+00 

12    0
S    3    1.000000
   3.38650000E+01    2.54938000E-02 
   5.09479000E+00    1.90373000E-01 
   1.15879000E+00    8.52161000E-01 
S    1    1.000000
   3.25840000E-01    1.00000000E+00 
S    1    1.000000
   1.02741000E-01    1.00000000E+00 
S    1    1.000000
   3.60000000E-02    1.00000000E+00 
P    1    1.000000
   7.50000000E-01    1.00000000E+00 

[MO]
Sym=X
Ene=0.036841
Spin=Alpha
Occup=1
1    0.00110896152
2    0.00858516748
3    0.0428264163
4    0.147036735
5    0.347345603
6    0.126657717
7    0.465135784
8    -0.0011097577
9    0.000317610035
10    -6.4682686e-16
11    0.00168885619
12    0.00108172715
13    -5.4151655e-05
14    2.61608511e-15
15    0.001444422
16    -0.000312610572
17    0.000837521975
18    -8.97013561e-15
19    0.000800963845
20    -0.000709902403
21    0.00051245272
22    8.5372057e-14
23    -0.000160624048
24    7.64632902e-05
25    -4.02945362e-05
26    -7.27741777e-14
27    0.000375008438
28    -1.48280838e-16
29    -0.000238355293
30    -1.37096064e-15
31    9.66910311e-05
32    2.93329e-05
33    5.31977368e-05
34    4.08801971e-05
35    -9.04256647e-05
36    4.71532759e-05
37    1.52636232e-05
38    1.43308178e-15
39    0.000381023949
40    0.000466132285
41    0.000225825055
42    0.000110736299
43    4.37517296e-05
44    0.000310227838
45    -3.91853623e-17
46    1.28632198e-05
47    -5.57859943e-05
48    0.000242814066
49    0.000260890409
50    5.78895247e-06
51    4.5773607e-06
52    1.38960241e-15
53    -2.11165243e-06
54    -1.63148644e-05
55    -8.16183432e-05
56    -0.000279341397
57    -0.000669360728
58    -0.000288428575
59    -0.000860272311
60    -6.50342429e-06
61    2.22834866e-05
62    6.55823473e-15
63    0.000109014684
64    2.08617704e-05
65    -8.5962213e-05
66    7.98295053e-15
67    0.00020758282
68    -0.000651266172
69    0.000409108248
70    1.30556376e-14
71    0.000679171245
72    -0.000325261965
73    0.000573030546
74    1.0309225e-13
75    0.00050820981
76    0.000172618033
77    9.00332303e-06
78    7.64120278e-14
79    -1.75268279e-05
80    9.16336207e-16
81    4.77262158e-06
82    -2.0799929e-15
83    -4.48947633e-05
84    -1.23134418e-08
85    -6.76157999e-08
86    -5.19742223e-07
87    -1.06435301e-06
88    -9.48406433e-06
89    -2.73099985e-05
90    1.01059373e-05
91    -4.68938685e-06
92    2.21911589e-06
93    4.71327381e-15
94    6.94388938e-05
95    2.59090644e-05
96    -2.55414854e-05
97    6.98895252e-15
98    -0.00030758269
99    -0.000158355733
100    8.77790725e-05
101    1.45611217e-14
102    -0.00104557104
103    -0.000166391223
104    0.000140717008
105    -1.68240159e-15
106    -0.00135812159
107    -0.000273605699
108    5.06683749e-05
109    -2.84949543e-14
110    -1.88603282e-06
111    -1.36046791e-15
112    9.72889409e-07
113    1.38973148e-15
114    -5.62988849e-06
115    1.60947355e-06
116    1.2512477e-05
117    6.2037112e-05
118    0.000214458546
119    0.000492620863
120    0.000123064896
121    0.000708841099
122    5.77207768e-06
123    2.4415291e-05
124    -2.06506485e-15
125    0.000112692982
126    -3.05317021e-05
127    -0.00013741912
128    -3.77440271e-15
129    0.000201278562
130    -0.000179479765
131    -9.61163342e-05
132    -1.03204485e-14
133    -0.000211994288
134    0.000277778755
135    0.00026996047
136    9.53405517e-14
137    3.06739231e-05
138    0.000188419094
139    -7.15607119e-05
140    -4.18894822e-14
141    3.8074614e-05
142    3.07882639e-17
143    -8.72317247e-06
144    -1.91858965e-15
145    -6.13747262e-05
146    4.06218006e-09
147    3.0543278e-08
148    1.51580128e-07
149    5.08831513e-07
150    1.39567043e-06
151    1.26873882e-06
152    1.14201411e-06
153    6.34896022e-07
154    3.05199629e-06
155    -1.43972237e-15
156    -4.5443949e-06
157    -9.56647973e-06
158    -2.22854878e-05
159    -6.33807083e-15
160    0.000103599869
161    4.17975869e-06
162    4.53816855e-07
163    1.59207858e-15
164    -0.000129484216
165    -3.24506295e-06
166    -1.37567654e-05
167    -2.69727419e-14
168    -3.63795779e-05
169    2.42651185e-05
170    -4.55972608e-05
171    -4.50431941e-15
172    5.51160291e-06
173    2.77179992e-16
174    -1.53161832e-06
175    1.08970393e-16
176    -7.16366691e-06
177    3.64032392e-08
178    3.18037214e-07
179    1.26470475e-06
180    5.42597077e-06
181    2.84760314e-06
182    -3.31606184e-05
183    3.96576233e-05
184    -2.71450369e-07
185    8.4595875e-06
186    3.59124857e-15
187    7.13267042e-05
188    -3.83076286e-07
189    -3.14923291e-05
190    -2.14077929e-15
191    3.95065182e-05
192    -5.4492166e-05
193    1.52491409e-05
194    2.25944001e-14
195    0.000100719865
196    0.000159669269
197    -0.000551015367
198    -7.03779687e-14
199    0.000774830403
200    -0.000279417043
201    -0.00013167399
202    -7.47951669e-14
203    4.30369274e-06
204    -3.00067787e-16
205    -2.97261719e-06
206    -1.82134415e-15
207    6.69952521e-06
208    3.6236851e-07
209    2.93302415e-06
210    1.29981051e-05
211    4.88167035e-05
212    7.10470104e-05
213    -0.000190406393
214    0.000218702097
215    6.6974417e-05
216    -4.05909893e-05
217    5.2265285e-15
218    0.000675310966
219    0.000735273597
220    -0.000446257097
221    -2.8156959e-15
222    -8.51923162e-05
223    -1.27550251e-05
224    8.78741939e-05
225    2.85012848e-14
226    -0.00128707411
227    -0.000439879215
228    0.00037761567
229    -6.8759853e-14
230    -0.000564399799
231    -0.000318212163
232    6.17147249e-05
233    -3.21833707e-14
234    -0.000328974359
235    8.2692396e-16
236    -0.000130312493
237    -1.50608637e-16
238    0.000184843478
239    2.88685352e-05
240    0.000223338901
241    0.0011150534
242    0.00382403484
243    0.00907248338
244    0.00339099533
245    0.0119566151
246    -0.000155134841
247    -6.70972332e-05
248    -1.3235519e-15
249    0.0002169459
250    -0.000239973509
251    -0.000109196533
252    -5.8035259e-15
253    -0.00075342631
254    0.000572882017
255    -0.000249960043
256    6.04552619e-15
257    0.00128079762
258    -5.2642874e-05
259    -0.000602794843
260    -1.07437958e-13
261    -0.000212486755
262    -0.000167465485
263    -0.000101826179
264    6.22304991e-14
265    0.000165690814
266    -1.89771031e-16
267    4.8445437e-05
268    -1.1816367e-15
269    0.000151301035
270    3.55100859e-05
271    3.37618361e-05
272    -0.000352974174
273    -0.00027200227
274    -9.2319579e-05
275    -1.0827622e-05
276    -1.79795968e-15
[5D]