[Molden Format]
[Atoms] (Angs)
  C      1    6     -0.00714236     -1.70213747     -0.00000000
  H      2    1     -2.06882847     -1.44022412      0.00000000
  H      3    1     -0.12337987     -2.77567521      0.00000000
  H      4    1      0.04651892      1.98813947     -0.00000000
  C      5    6     -1.21953563      0.40211669      0.00000000
  O      6    8     -2.25921553      1.03043814      0.00000000
  C      7    6      1.28797806      0.34644937     -0.00000000
  O      8    8      2.31273661      1.00537216     -0.00000000
  N      9    7      0.03446295      0.97739857     -0.00000000
  N     10    7     -1.17287765     -0.98229824      0.00000000
  C     11    6      1.20107039     -1.10433419     -0.00000000
  H     12    1      2.11220096     -1.67699125     -0.00000000
[GTO]
1    0
S    1    1.000000
   4.56324000E+03    1.96665000E-03 
S    1    1.000000
   6.82024000E+02    1.52306000E-02 
S    1    1.000000
   1.54973000E+02    7.61269000E-02 
S    1    1.000000
   4.44553000E+01    2.60801000E-01 
S    1    1.000000
   1.30290000E+01    6.16462000E-01 
S    1    1.000000
   1.82773000E+00    2.21006000E-01 
SP   3    1.000000
   2.09642000E+01    1.14660000E-01   4.02487000E-02 
   4.80331000E+00    9.19999000E-01   2.37594000E-01 
   1.45933000E+00   -3.03068000E-03   8.15854000E-01 
SP   1    1.000000
   4.83456000E-01    1.00000000E+00   1.00000000E+00 
SP   1    1.000000
   1.45585000E-01    1.00000000E+00   1.00000000E+00 
SP   1    1.000000
   4.38000000E-02    1.00000000E+00   1.00000000E+00 
SP   1    1.000000
   1.31927711E-02    1.00000000E+00   1.00000000E+00 
D    1    1.000000
   6.26000000E-01    1.00000000E+00 

2    0
S    3    1.000000
   3.38650000E+01    2.54938000E-02 
   5.09479000E+00    1.90373000E-01 
   1.15879000E+00    8.52161000E-01 
S    1    1.000000
   3.25840000E-01    1.00000000E+00 
S    1    1.000000
   1.02741000E-01    1.00000000E+00 
S    1    1.000000
   3.60000000E-02    1.00000000E+00 
P    1    1.000000
   7.50000000E-01    1.00000000E+00 

3    0
S    3    1.000000
   3.38650000E+01    2.54938000E-02 
   5.09479000E+00    1.90373000E-01 
   1.15879000E+00    8.52161000E-01 
S    1    1.000000
   3.25840000E-01    1.00000000E+00 
S    1    1.000000
   1.02741000E-01    1.00000000E+00 
S    1    1.000000
   3.60000000E-02    1.00000000E+00 
P    1    1.000000
   7.50000000E-01    1.00000000E+00 

4    0
S    3    1.000000
   3.38650000E+01    2.54938000E-02 
   5.09479000E+00    1.90373000E-01 
   1.15879000E+00    8.52161000E-01 
S    1    1.000000
   3.25840000E-01    1.00000000E+00 
S    1    1.000000
   1.02741000E-01    1.00000000E+00 
S    1    1.000000
   3.60000000E-02    1.00000000E+00 
P    1    1.000000
   7.50000000E-01    1.00000000E+00 

5    0
S    1    1.000000
   4.56324000E+03    1.96665000E-03 
S    1    1.000000
   6.82024000E+02    1.52306000E-02 
S    1    1.000000
   1.54973000E+02    7.61269000E-02 
S    1    1.000000
   4.44553000E+01    2.60801000E-01 
S    1    1.000000
   1.30290000E+01    6.16462000E-01 
S    1    1.000000
   1.82773000E+00    2.21006000E-01 
SP   3    1.000000
   2.09642000E+01    1.14660000E-01   4.02487000E-02 
   4.80331000E+00    9.19999000E-01   2.37594000E-01 
   1.45933000E+00   -3.03068000E-03   8.15854000E-01 
SP   1    1.000000
   4.83456000E-01    1.00000000E+00   1.00000000E+00 
SP   1    1.000000
   1.45585000E-01    1.00000000E+00   1.00000000E+00 
SP   1    1.000000
   4.38000000E-02    1.00000000E+00   1.00000000E+00 
SP   1    1.000000
   1.31927711E-02    1.00000000E+00   1.00000000E+00 
D    1    1.000000
   6.26000000E-01    1.00000000E+00 

6    0
S    1    1.000000
   8.58850000E+03    1.89515000E-03 
S    1    1.000000
   1.29723000E+03    1.43859000E-02 
S    1    1.000000
   2.99296000E+02    7.07320000E-02 
S    1    1.000000
   8.73771000E+01    2.40001000E-01 
S    1    1.000000
   2.56789000E+01    5.94797000E-01 
S    1    1.000000
   3.74004000E+00    2.80802000E-01 
SP   3    1.000000
   4.21175000E+01    1.13889000E-01   3.65114000E-02 
   9.62837000E+00    9.20811000E-01   2.37153000E-01 
   2.85332000E+00   -3.27447000E-03   8.19702000E-01 
SP   1    1.000000
   9.05661000E-01    1.00000000E+00   1.00000000E+00 
SP   1    1.000000
   2.55611000E-01    1.00000000E+00   1.00000000E+00 
SP   1    1.000000
   8.45000000E-02    1.00000000E+00   1.00000000E+00 
SP   1    1.000000
   2.54518072E-02    1.00000000E+00   1.00000000E+00 
D    1    1.000000
   1.29200000E+00    1.00000000E+00 

7    0
S    1    1.000000
   4.56324000E+03    1.96665000E-03 
S    1    1.000000
   6.82024000E+02    1.52306000E-02 
S    1    1.000000
   1.54973000E+02    7.61269000E-02 
S    1    1.000000
   4.44553000E+01    2.60801000E-01 
S    1    1.000000
   1.30290000E+01    6.16462000E-01 
S    1    1.000000
   1.82773000E+00    2.21006000E-01 
SP   3    1.000000
   2.09642000E+01    1.14660000E-01   4.02487000E-02 
   4.80331000E+00    9.19999000E-01   2.37594000E-01 
   1.45933000E+00   -3.03068000E-03   8.15854000E-01 
SP   1    1.000000
   4.83456000E-01    1.00000000E+00   1.00000000E+00 
SP   1    1.000000
   1.45585000E-01    1.00000000E+00   1.00000000E+00 
SP   1    1.000000
   4.38000000E-02    1.00000000E+00   1.00000000E+00 
SP   1    1.000000
   1.31927711E-02    1.00000000E+00   1.00000000E+00 
D    1    1.000000
   6.26000000E-01    1.00000000E+00 

8    0
S    1    1.000000
   8.58850000E+03    1.89515000E-03 
S    1    1.000000
   1.29723000E+03    1.43859000E-02 
S    1    1.000000
   2.99296000E+02    7.07320000E-02 
S    1    1.000000
   8.73771000E+01    2.40001000E-01 
S    1    1.000000
   2.56789000E+01    5.94797000E-01 
S    1    1.000000
   3.74004000E+00    2.80802000E-01 
SP   3    1.000000
   4.21175000E+01    1.13889000E-01   3.65114000E-02 
   9.62837000E+00    9.20811000E-01   2.37153000E-01 
   2.85332000E+00   -3.27447000E-03   8.19702000E-01 
SP   1    1.000000
   9.05661000E-01    1.00000000E+00   1.00000000E+00 
SP   1    1.000000
   2.55611000E-01    1.00000000E+00   1.00000000E+00 
SP   1    1.000000
   8.45000000E-02    1.00000000E+00   1.00000000E+00 
SP   1    1.000000
   2.54518072E-02    1.00000000E+00   1.00000000E+00 
D    1    1.000000
   1.29200000E+00    1.00000000E+00 

9    0
S    1    1.000000
   6.29348000E+03    1.96979000E-03 
S    1    1.000000
   9.49044000E+02    1.49613000E-02 
S    1    1.000000
   2.18776000E+02    7.35006000E-02 
S    1    1.000000
   6.36916000E+01    2.48937000E-01 
S    1    1.000000
   1.88282000E+01    6.02460000E-01 
S    1    1.000000
   2.72023000E+00    2.56202000E-01 
SP   3    1.000000
   3.06331000E+01    1.11906000E-01   3.83119000E-02 
   7.02614000E+00    9.21666000E-01   2.37403000E-01 
   2.11205000E+00   -2.56919000E-03   8.17592000E-01 
SP   1    1.000000
   6.84009000E-01    1.00000000E+00   1.00000000E+00 
SP   1    1.000000
   2.00878000E-01    1.00000000E+00   1.00000000E+00 
SP   1    1.000000
   6.39000000E-02    1.00000000E+00   1.00000000E+00 
SP   1    1.000000
   1.92469880E-02    1.00000000E+00   1.00000000E+00 
D    1    1.000000
   9.13000000E-01    1.00000000E+00 

10    0
S    1    1.000000
   6.29348000E+03    1.96979000E-03 
S    1    1.000000
   9.49044000E+02    1.49613000E-02 
S    1    1.000000
   2.18776000E+02    7.35006000E-02 
S    1    1.000000
   6.36916000E+01    2.48937000E-01 
S    1    1.000000
   1.88282000E+01    6.02460000E-01 
S    1    1.000000
   2.72023000E+00    2.56202000E-01 
SP   3    1.000000
   3.06331000E+01    1.11906000E-01   3.83119000E-02 
   7.02614000E+00    9.21666000E-01   2.37403000E-01 
   2.11205000E+00   -2.56919000E-03   8.17592000E-01 
SP   1    1.000000
   6.84009000E-01    1.00000000E+00   1.00000000E+00 
SP   1    1.000000
   2.00878000E-01    1.00000000E+00   1.00000000E+00 
SP   1    1.000000
   6.39000000E-02    1.00000000E+00   1.00000000E+00 
SP   1    1.000000
   1.92469880E-02    1.00000000E+00   1.00000000E+00 
D    1    1.000000
   9.13000000E-01    1.00000000E+00 

11    0
S    1    1.000000
   4.56324000E+03    1.96665000E-03 
S    1    1.000000
   6.82024000E+02    1.52306000E-02 
S    1    1.000000
   1.54973000E+02    7.61269000E-02 
S    1    1.000000
   4.44553000E+01    2.60801000E-01 
S    1    1.000000
   1.30290000E+01    6.16462000E-01 
S    1    1.000000
   1.82773000E+00    2.21006000E-01 
SP   3    1.000000
   2.09642000E+01    1.14660000E-01   4.02487000E-02 
   4.80331000E+00    9.19999000E-01   2.37594000E-01 
   1.45933000E+00   -3.03068000E-03   8.15854000E-01 
SP   1    1.000000
   4.83456000E-01    1.00000000E+00   1.00000000E+00 
SP   1    1.000000
   1.45585000E-01    1.00000000E+00   1.00000000E+00 
SP   1    1.000000
   4.38000000E-02    1.00000000E+00   1.00000000E+00 
SP   1    1.000000
   1.31927711E-02    1.00000000E+00   1.00000000E+00 
D    1    1.000000
   6.26000000E-01    1.00000000E+00 

12    0
S    3    1.000000
   3.38650000E+01    2.54938000E-02 
   5.09479000E+00    1.90373000E-01 
   1.15879000E+00    8.52161000E-01 
S    1    1.000000
   3.25840000E-01    1.00000000E+00 
S    1    1.000000
   1.02741000E-01    1.00000000E+00 
S    1    1.000000
   3.60000000E-02    1.00000000E+00 
P    1    1.000000
   7.50000000E-01    1.00000000E+00 

[MO]
Sym=X
Ene=0.084941
Spin=Alpha
Occup=1
1    -0.00110901701
2    -0.00858559841
3    -0.0428285577
4    -0.147044127
5    -0.347362721
6    -0.126663539
7    -0.465160432
8    0.00111130751
9    -0.000316681122
10    6.57081928e-16
11    -0.00168624075
12    -0.00107837308
13    5.52359322e-05
14    -2.56647109e-15
15    -0.0014518014
16    0.000311311653
17    -0.000844661984
18    8.92648477e-15
19    -0.00080231273
20    0.000708158977
21    -0.000517401577
22    -8.43502291e-14
23    0.000157676213
24    -7.76176252e-05
25    4.11916145e-05
26    7.29438128e-14
27    -0.000373392917
28    1.31321109e-16
29    0.000238121435
30    1.40330808e-15
31    -9.49644037e-05
32    -2.94874346e-05
33    -5.20710948e-05
34    -4.34586674e-05
35    8.79222951e-05
36    -4.71007571e-05
37    -1.52718535e-05
38    -1.45291176e-15
39    -0.000380790633
40    -0.000466982275
41    -0.000228961498
42    -0.000118308336
43    -4.34660892e-05
44    -0.000309941097
45    4.69927193e-17
46    -1.33425074e-05
47    5.5243639e-05
48    -0.00024450436
49    -0.00025471368
50    -5.52842433e-06
51    -3.87505675e-06
52    -1.42476691e-15
53    1.2440604e-07
54    9.30412216e-07
55    4.87303115e-06
56    1.58535559e-05
57    4.69267948e-05
58    6.23679065e-05
59    2.63896991e-05
60    5.59878318e-06
61    -2.14151523e-05
62    -6.62633797e-15
63    -0.000112432745
64    -2.02673652e-05
65    8.491759e-05
66    -8.17508555e-15
67    -0.00021506556
68    0.00065377003
69    -0.000409960828
70    -1.31750032e-14
71    -0.00068692351
72    0.000326701373
73    -0.000570480523
74    -1.02020821e-13
75    -0.000498522957
76    -0.00017026929
77    -7.83617474e-06
78    -7.56055941e-14
79    1.79767952e-05
80    -9.34111554e-16
81    -4.28519942e-06
82    2.08167281e-15
83    4.3928486e-05
84    8.52854981e-09
85    3.85206361e-08
86    3.79612744e-07
87    5.78835937e-07
88    8.35636178e-06
89    2.70945413e-05
90    -1.18352082e-05
91    4.29566763e-06
92    -1.9928157e-06
93    -4.76417817e-15
94    -7.09177071e-05
95    -2.70584372e-05
96    2.60908166e-05
97    -7.07320303e-15
98    0.000309974126
99    0.000159672932
100    -8.88217495e-05
101    -1.46581514e-14
102    0.00105246843
103    0.000168443246
104    -0.000140629725
105    1.40038469e-15
106    0.00136200349
107    0.000273553414
108    -5.32106959e-05
109    2.83431208e-14
110    2.23030559e-06
111    1.35920176e-15
112    -7.75594533e-07
113    -1.40413437e-15
114    5.3326967e-06
115    -1.94284535e-05
116    -0.000150457704
117    -0.000750189988
118    -0.00257700753
119    -0.00607428136
120    -0.00215491716
121    -0.00818435011
122    6.01600752e-06
123    -3.30391231e-05
124    2.06826524e-15
125    -0.000133781858
126    1.73526036e-05
127    0.000135453862
128    3.8014382e-15
129    -0.000231517009
130    0.000188215787
131    9.76863562e-05
132    1.03076852e-14
133    0.000226483544
134    -0.000272184761
135    -0.000297415187
136    -9.4112104e-14
137    -3.04125154e-05
138    -0.000184047595
139    7.10731929e-05
140    4.15613448e-14
141    -4.29023481e-05
142    -4.17635833e-17
143    1.21339182e-05
144    1.96215256e-15
145    5.88559725e-05
146    -6.39523409e-09
147    -4.96473101e-08
148    -2.32426122e-07
149    -8.23898048e-07
150    -1.8598491e-06
151    3.01230932e-07
152    -1.61754603e-06
153    2.7401059e-06
154    -6.26533433e-07
155    1.45813428e-15
156    -5.19057674e-06
157    1.81522211e-05
158    2.78589094e-05
159    6.37577646e-15
160    -0.000100908774
161    -6.80329602e-06
162    -2.3805569e-06
163    -1.49692053e-15
164    0.00012875553
165    5.08383042e-06
166    1.70315192e-05
167    2.68339231e-14
168    5.51638086e-05
169    -3.0474287e-05
170    4.53154416e-05
171    4.75497631e-15
172    -9.36514512e-06
173    -2.79733083e-16
174    3.35644188e-06
175    -1.11440399e-16
176    5.0941816e-06
177    1.70011684e-08
178    8.579517e-08
179    7.36006298e-07
180    1.28904696e-06
181    1.41277011e-05
182    4.37306888e-05
183    -1.78742712e-05
184    -5.44749524e-07
185    -7.63530299e-06
186    -3.61192047e-15
187    -8.08082622e-05
188    -8.82738096e-06
189    3.69474908e-05
190    1.95391751e-15
191    -3.75532477e-05
192    5.49376946e-05
193    -1.47332688e-05
194    -2.24320211e-14
195    -7.38163021e-05
196    -0.000146588863
197    0.000548028122
198    6.94041664e-14
199    -0.000775045202
200    0.000274599071
201    0.000128347452
202    7.42113754e-14
203    -7.24936547e-07
204    3.0398128e-16
205    5.0952159e-06
206    1.8429122e-15
207    -1.03869752e-05
208    -3.25154314e-07
209    -2.65009958e-06
210    -1.16085562e-05
211    -4.41117266e-05
212    -5.95613869e-05
213    0.000195798531
214    -0.0002030127
215    -6.71174736e-05
216    4.05516519e-05
217    -5.22466916e-15
218    -0.00067675889
219    -0.000734814333
220    0.000444480099
221    2.69648863e-15
222    8.82473376e-05
223    1.44953413e-05
224    -8.64154722e-05
225    -2.83903449e-14
226    0.00129517191
227    0.000436273506
228    -0.000376004983
229    6.80112779e-14
230    0.000557718436
231    0.000319253153
232    -6.58089685e-05
233    3.14238115e-14
234    0.000328943064
235    -8.53062078e-16
236    0.000130456106
237    1.58306951e-16
238    -0.000183857678
239    -1.86851555e-05
240    -0.000144501194
241    -0.000721790572
242    -0.00247375047
243    -0.00588293152
244    -0.00222384306
245    -0.00768628155
246    0.000153474867
247    6.78056047e-05
248    1.36196603e-15
249    -0.00020500427
250    0.000238532156
251    9.99531875e-05
252    5.82967521e-15
253    0.00077353725
254    -0.000580810403
255    0.000259818403
256    -5.86679578e-15
257    -0.0013251645
258    4.59012571e-05
259    0.000590211046
260    1.06400566e-13
261    0.000205106478
262    0.000166634207
263    9.80882278e-05
264    -6.18630451e-14
265    -0.000165688368
266    1.85627404e-16
267    -4.89743332e-05
268    1.18514097e-15
269    -0.000145987184
270    -3.24350864e-05
271    -3.11673173e-05
272    0.000358469175
273    0.000272269478
274    9.04784536e-05
275    1.10709221e-05
276    1.82188968e-15
[5D]