[Molden Format]
[Atoms] (Angs)
  C      1    6     -0.00714236     -1.70213747     -0.00000000
  H      2    1     -2.06882847     -1.44022412      0.00000000
  H      3    1     -0.12337987     -2.77567521      0.00000000
  H      4    1      0.04651892      1.98813947     -0.00000000
  C      5    6     -1.21953563      0.40211669      0.00000000
  O      6    8     -2.25921553      1.03043814      0.00000000
  C      7    6      1.28797806      0.34644937     -0.00000000
  O      8    8      2.31273661      1.00537216     -0.00000000
  N      9    7      0.03446295      0.97739857     -0.00000000
  N     10    7     -1.17287765     -0.98229824      0.00000000
  C     11    6      1.20107039     -1.10433419     -0.00000000
  H     12    1      2.11220096     -1.67699125     -0.00000000
[GTO]
1    0
S    1    1.000000
   4.56324000E+03    1.96665000E-03 
S    1    1.000000
   6.82024000E+02    1.52306000E-02 
S    1    1.000000
   1.54973000E+02    7.61269000E-02 
S    1    1.000000
   4.44553000E+01    2.60801000E-01 
S    1    1.000000
   1.30290000E+01    6.16462000E-01 
S    1    1.000000
   1.82773000E+00    2.21006000E-01 
SP   3    1.000000
   2.09642000E+01    1.14660000E-01   4.02487000E-02 
   4.80331000E+00    9.19999000E-01   2.37594000E-01 
   1.45933000E+00   -3.03068000E-03   8.15854000E-01 
SP   1    1.000000
   4.83456000E-01    1.00000000E+00   1.00000000E+00 
SP   1    1.000000
   1.45585000E-01    1.00000000E+00   1.00000000E+00 
SP   1    1.000000
   4.38000000E-02    1.00000000E+00   1.00000000E+00 
SP   1    1.000000
   1.31927711E-02    1.00000000E+00   1.00000000E+00 
D    1    1.000000
   6.26000000E-01    1.00000000E+00 

2    0
S    3    1.000000
   3.38650000E+01    2.54938000E-02 
   5.09479000E+00    1.90373000E-01 
   1.15879000E+00    8.52161000E-01 
S    1    1.000000
   3.25840000E-01    1.00000000E+00 
S    1    1.000000
   1.02741000E-01    1.00000000E+00 
S    1    1.000000
   3.60000000E-02    1.00000000E+00 
P    1    1.000000
   7.50000000E-01    1.00000000E+00 

3    0
S    3    1.000000
   3.38650000E+01    2.54938000E-02 
   5.09479000E+00    1.90373000E-01 
   1.15879000E+00    8.52161000E-01 
S    1    1.000000
   3.25840000E-01    1.00000000E+00 
S    1    1.000000
   1.02741000E-01    1.00000000E+00 
S    1    1.000000
   3.60000000E-02    1.00000000E+00 
P    1    1.000000
   7.50000000E-01    1.00000000E+00 

4    0
S    3    1.000000
   3.38650000E+01    2.54938000E-02 
   5.09479000E+00    1.90373000E-01 
   1.15879000E+00    8.52161000E-01 
S    1    1.000000
   3.25840000E-01    1.00000000E+00 
S    1    1.000000
   1.02741000E-01    1.00000000E+00 
S    1    1.000000
   3.60000000E-02    1.00000000E+00 
P    1    1.000000
   7.50000000E-01    1.00000000E+00 

5    0
S    1    1.000000
   4.56324000E+03    1.96665000E-03 
S    1    1.000000
   6.82024000E+02    1.52306000E-02 
S    1    1.000000
   1.54973000E+02    7.61269000E-02 
S    1    1.000000
   4.44553000E+01    2.60801000E-01 
S    1    1.000000
   1.30290000E+01    6.16462000E-01 
S    1    1.000000
   1.82773000E+00    2.21006000E-01 
SP   3    1.000000
   2.09642000E+01    1.14660000E-01   4.02487000E-02 
   4.80331000E+00    9.19999000E-01   2.37594000E-01 
   1.45933000E+00   -3.03068000E-03   8.15854000E-01 
SP   1    1.000000
   4.83456000E-01    1.00000000E+00   1.00000000E+00 
SP   1    1.000000
   1.45585000E-01    1.00000000E+00   1.00000000E+00 
SP   1    1.000000
   4.38000000E-02    1.00000000E+00   1.00000000E+00 
SP   1    1.000000
   1.31927711E-02    1.00000000E+00   1.00000000E+00 
D    1    1.000000
   6.26000000E-01    1.00000000E+00 

6    0
S    1    1.000000
   8.58850000E+03    1.89515000E-03 
S    1    1.000000
   1.29723000E+03    1.43859000E-02 
S    1    1.000000
   2.99296000E+02    7.07320000E-02 
S    1    1.000000
   8.73771000E+01    2.40001000E-01 
S    1    1.000000
   2.56789000E+01    5.94797000E-01 
S    1    1.000000
   3.74004000E+00    2.80802000E-01 
SP   3    1.000000
   4.21175000E+01    1.13889000E-01   3.65114000E-02 
   9.62837000E+00    9.20811000E-01   2.37153000E-01 
   2.85332000E+00   -3.27447000E-03   8.19702000E-01 
SP   1    1.000000
   9.05661000E-01    1.00000000E+00   1.00000000E+00 
SP   1    1.000000
   2.55611000E-01    1.00000000E+00   1.00000000E+00 
SP   1    1.000000
   8.45000000E-02    1.00000000E+00   1.00000000E+00 
SP   1    1.000000
   2.54518072E-02    1.00000000E+00   1.00000000E+00 
D    1    1.000000
   1.29200000E+00    1.00000000E+00 

7    0
S    1    1.000000
   4.56324000E+03    1.96665000E-03 
S    1    1.000000
   6.82024000E+02    1.52306000E-02 
S    1    1.000000
   1.54973000E+02    7.61269000E-02 
S    1    1.000000
   4.44553000E+01    2.60801000E-01 
S    1    1.000000
   1.30290000E+01    6.16462000E-01 
S    1    1.000000
   1.82773000E+00    2.21006000E-01 
SP   3    1.000000
   2.09642000E+01    1.14660000E-01   4.02487000E-02 
   4.80331000E+00    9.19999000E-01   2.37594000E-01 
   1.45933000E+00   -3.03068000E-03   8.15854000E-01 
SP   1    1.000000
   4.83456000E-01    1.00000000E+00   1.00000000E+00 
SP   1    1.000000
   1.45585000E-01    1.00000000E+00   1.00000000E+00 
SP   1    1.000000
   4.38000000E-02    1.00000000E+00   1.00000000E+00 
SP   1    1.000000
   1.31927711E-02    1.00000000E+00   1.00000000E+00 
D    1    1.000000
   6.26000000E-01    1.00000000E+00 

8    0
S    1    1.000000
   8.58850000E+03    1.89515000E-03 
S    1    1.000000
   1.29723000E+03    1.43859000E-02 
S    1    1.000000
   2.99296000E+02    7.07320000E-02 
S    1    1.000000
   8.73771000E+01    2.40001000E-01 
S    1    1.000000
   2.56789000E+01    5.94797000E-01 
S    1    1.000000
   3.74004000E+00    2.80802000E-01 
SP   3    1.000000
   4.21175000E+01    1.13889000E-01   3.65114000E-02 
   9.62837000E+00    9.20811000E-01   2.37153000E-01 
   2.85332000E+00   -3.27447000E-03   8.19702000E-01 
SP   1    1.000000
   9.05661000E-01    1.00000000E+00   1.00000000E+00 
SP   1    1.000000
   2.55611000E-01    1.00000000E+00   1.00000000E+00 
SP   1    1.000000
   8.45000000E-02    1.00000000E+00   1.00000000E+00 
SP   1    1.000000
   2.54518072E-02    1.00000000E+00   1.00000000E+00 
D    1    1.000000
   1.29200000E+00    1.00000000E+00 

9    0
S    1    1.000000
   6.29348000E+03    1.96979000E-03 
S    1    1.000000
   9.49044000E+02    1.49613000E-02 
S    1    1.000000
   2.18776000E+02    7.35006000E-02 
S    1    1.000000
   6.36916000E+01    2.48937000E-01 
S    1    1.000000
   1.88282000E+01    6.02460000E-01 
S    1    1.000000
   2.72023000E+00    2.56202000E-01 
SP   3    1.000000
   3.06331000E+01    1.11906000E-01   3.83119000E-02 
   7.02614000E+00    9.21666000E-01   2.37403000E-01 
   2.11205000E+00   -2.56919000E-03   8.17592000E-01 
SP   1    1.000000
   6.84009000E-01    1.00000000E+00   1.00000000E+00 
SP   1    1.000000
   2.00878000E-01    1.00000000E+00   1.00000000E+00 
SP   1    1.000000
   6.39000000E-02    1.00000000E+00   1.00000000E+00 
SP   1    1.000000
   1.92469880E-02    1.00000000E+00   1.00000000E+00 
D    1    1.000000
   9.13000000E-01    1.00000000E+00 

10    0
S    1    1.000000
   6.29348000E+03    1.96979000E-03 
S    1    1.000000
   9.49044000E+02    1.49613000E-02 
S    1    1.000000
   2.18776000E+02    7.35006000E-02 
S    1    1.000000
   6.36916000E+01    2.48937000E-01 
S    1    1.000000
   1.88282000E+01    6.02460000E-01 
S    1    1.000000
   2.72023000E+00    2.56202000E-01 
SP   3    1.000000
   3.06331000E+01    1.11906000E-01   3.83119000E-02 
   7.02614000E+00    9.21666000E-01   2.37403000E-01 
   2.11205000E+00   -2.56919000E-03   8.17592000E-01 
SP   1    1.000000
   6.84009000E-01    1.00000000E+00   1.00000000E+00 
SP   1    1.000000
   2.00878000E-01    1.00000000E+00   1.00000000E+00 
SP   1    1.000000
   6.39000000E-02    1.00000000E+00   1.00000000E+00 
SP   1    1.000000
   1.92469880E-02    1.00000000E+00   1.00000000E+00 
D    1    1.000000
   9.13000000E-01    1.00000000E+00 

11    0
S    1    1.000000
   4.56324000E+03    1.96665000E-03 
S    1    1.000000
   6.82024000E+02    1.52306000E-02 
S    1    1.000000
   1.54973000E+02    7.61269000E-02 
S    1    1.000000
   4.44553000E+01    2.60801000E-01 
S    1    1.000000
   1.30290000E+01    6.16462000E-01 
S    1    1.000000
   1.82773000E+00    2.21006000E-01 
SP   3    1.000000
   2.09642000E+01    1.14660000E-01   4.02487000E-02 
   4.80331000E+00    9.19999000E-01   2.37594000E-01 
   1.45933000E+00   -3.03068000E-03   8.15854000E-01 
SP   1    1.000000
   4.83456000E-01    1.00000000E+00   1.00000000E+00 
SP   1    1.000000
   1.45585000E-01    1.00000000E+00   1.00000000E+00 
SP   1    1.000000
   4.38000000E-02    1.00000000E+00   1.00000000E+00 
SP   1    1.000000
   1.31927711E-02    1.00000000E+00   1.00000000E+00 
D    1    1.000000
   6.26000000E-01    1.00000000E+00 

12    0
S    3    1.000000
   3.38650000E+01    2.54938000E-02 
   5.09479000E+00    1.90373000E-01 
   1.15879000E+00    8.52161000E-01 
S    1    1.000000
   3.25840000E-01    1.00000000E+00 
S    1    1.000000
   1.02741000E-01    1.00000000E+00 
S    1    1.000000
   3.60000000E-02    1.00000000E+00 
P    1    1.000000
   7.50000000E-01    1.00000000E+00 

[MO]
Sym=X
Ene=0.056802
Spin=Alpha
Occup=1
1    6.02711231e-06
2    4.66490908e-05
3    0.000232776213
4    0.000798936576
5    0.00189094757
6    0.000710122729
7    0.00251602347
8    -2.0890608e-05
9    9.83104594e-06
10    -4.63427448e-16
11    -4.02513246e-05
12    8.65542444e-05
13    -2.39863607e-05
14    -2.3720233e-15
15    0.000327227317
16    -9.07098652e-05
17    0.000145552105
18    7.76638314e-17
19    -0.00324328616
20    -0.000497511485
21    -0.00128250755
22    -1.31083213e-14
23    -0.000312740961
24    0.000213064548
25    -8.07493383e-05
26    -5.01719167e-14
27    5.89814279e-05
28    -5.32133507e-16
29    -1.75390786e-05
30    -1.86888155e-17
31    1.76214594e-06
32    -3.24495656e-05
33    -1.17991218e-05
34    -2.52832854e-05
35    -0.000105485143
36    -3.79323867e-05
37    -2.17754624e-05
38    -5.5338872e-16
39    -9.3536878e-06
40    -2.06244604e-06
41    2.2328869e-05
42    -0.000868756697
43    8.75608585e-06
44    -8.55723073e-06
45    1.99593125e-16
46    -3.04803865e-05
47    -4.7083458e-05
48    0.000107142468
49    5.02563824e-05
50    6.15405389e-06
51    4.77046784e-05
52    -7.07243845e-16
53    -0.00110954287
54    -0.0085894971
55    -0.042849611
56    -0.147111031
57    -0.347557192
58    -0.126415641
59    -0.465471078
60    -0.000643664035
61    0.000449554766
62    -1.91169052e-15
63    -0.00162657559
64    0.000736587765
65    -0.000483349212
66    3.69349947e-16
67    -0.0014300114
68    -0.000380815086
69    0.000209902543
70    -9.17315306e-15
71    0.000418765352
72    0.000713648264
73    -0.000470394391
74    2.07422938e-14
75    0.000734795084
76    1.96934754e-05
77    -0.000106826711
78    3.55638289e-14
79    0.000277811948
80    3.96606233e-16
81    0.000242050911
82    -3.34650203e-16
83    -0.000158495751
84    1.95345036e-07
85    1.39100175e-06
86    7.69324988e-06
87    2.33982656e-05
88    8.00172455e-05
89    0.000153212399
90    0.000117940959
91    -0.000212090386
92    0.000128431873
93    -4.15047029e-16
94    -0.000595556004
95    -0.000534818273
96    0.000320493248
97    -1.04730655e-15
98    0.000254677525
99    0.00023868516
100    -0.000137093178
101    7.78289219e-16
102    -0.000157693564
103    -0.000286312285
104    0.000153858201
105    -6.58416783e-16
106    0.000885336097
107    0.000143200274
108    -0.000108726956
109    -2.05343292e-14
110    0.000239518682
111    -1.01317692e-16
112    0.000116385664
113    -5.20319537e-16
114    -0.000126487197
115    1.87541435e-06
116    1.45006467e-05
117    7.24622411e-05
118    0.000248296694
119    0.000591773402
120    0.000238979019
121    0.000771929804
122    -1.89633867e-05
123    3.30810914e-06
124    -2.19437221e-15
125    -3.94878856e-05
126    5.30253413e-05
127    -1.27793641e-05
128    -5.15488313e-15
129    -5.67765321e-05
130    -0.000388319413
131    -0.000126919942
132    -1.43626191e-15
133    -0.00334928664
134    0.0004377354
135    0.000858866301
136    -4.45644059e-14
137    -0.000589632162
138    0.000130991945
139    0.000124941626
140    -1.29108184e-14
141    1.06312148e-05
142    -2.25674438e-16
143    -5.23673303e-06
144    -2.46239397e-16
145    -4.04043005e-05
146    -1.49415991e-09
147    -2.46518327e-08
148    -2.46809824e-08
149    -4.44945888e-07
150    2.36101077e-06
151    1.24169491e-05
152    -8.45560386e-06
153    -1.73143517e-06
154    -9.60616668e-07
155    -1.84344654e-15
156    -3.35711674e-05
157    2.07694386e-05
158    8.08391823e-07
159    -2.13670443e-15
160    0.000134728478
161    -6.25120385e-05
162    -5.34589849e-05
163    -6.6351216e-15
164    0.000638688453
165    -0.000218541629
166    -0.00011105016
167    5.60879589e-15
168    6.23083592e-05
169    -2.91732435e-05
170    -0.000112548221
171    1.43722185e-14
172    3.38147512e-06
173    3.92850935e-16
174    -7.31674119e-07
175    5.39729941e-16
176    -5.38736301e-06
177    4.71270813e-07
178    3.45485101e-06
179    1.79998796e-05
180    5.74889428e-05
181    0.000174977412
182    0.000246544498
183    0.000159399701
184    7.35051907e-05
185    4.39935621e-05
186    -1.94007644e-15
187    -0.000545772938
188    0.000627750407
189    0.000291968194
190    -9.61089514e-16
191    7.81562588e-05
192    -0.000192900981
193    1.51743062e-05
194    -7.74995697e-15
195    0.000378263108
196    -0.000483144784
197    -0.000266617235
198    1.47582223e-14
199    -4.85311722e-06
200    0.000101709987
201    -2.78771086e-05
202    -6.84949658e-15
203    -0.000229431126
204    7.51299363e-18
205    9.83958292e-05
206    -1.9112842e-16
207    -0.000206958377
208    7.91450638e-07
209    5.88784114e-06
210    2.99539026e-05
211    9.79264069e-05
212    0.000273908206
213    0.000291059829
214    0.000292406027
215    -6.81443315e-06
216    -8.13915287e-05
217    -3.70254289e-16
218    -0.000542448398
219    3.84106285e-05
220    -0.000706486844
221    -2.54418956e-15
222    7.11520293e-05
223    -6.00482562e-05
224    0.000170626229
225    2.95829075e-15
226    0.000437411202
227    -9.81305541e-05
228    0.000237607361
229    -6.52557992e-15
230    -8.75553507e-05
231    0.000139980673
232    -0.000300858282
233    3.5787329e-14
234    2.52931113e-05
235    -7.28720544e-18
236    0.000100472308
237    -3.28352065e-16
238    0.000317991263
239    4.2874368e-06
240    3.31644855e-05
241    0.000165633614
242    0.000567927771
243    0.00134898696
244    0.000523979532
245    0.00177910666
246    -9.98263998e-06
247    3.52599292e-06
248    -1.87349271e-15
249    -6.58516558e-05
250    6.68596845e-05
251    -1.88397723e-05
252    -2.19949724e-15
253    -0.000124109607
254    0.000116503835
255    -5.70650295e-05
256    -7.12869802e-15
257    0.00541026783
258    -0.000903897072
259    0.000565584104
260    2.90000937e-14
261    7.92980257e-05
262    -7.79668467e-05
263    3.97016215e-05
264    4.35724689e-14
265    -2.32308762e-05
266    -5.6953417e-16
267    -1.84319133e-06
268    5.84982996e-17
269    -1.7110645e-06
270    -3.31850779e-06
271    -5.03769737e-05
272    -1.14001383e-05
273    0.000107199996
274    1.22710199e-05
275    -6.67107494e-06
276    -7.76951795e-16
[5D]