[Molden Format]
[Atoms] (Angs)
  C      1    6     -0.00714236     -1.70213747     -0.00000000
  H      2    1     -2.06882847     -1.44022412      0.00000000
  H      3    1     -0.12337987     -2.77567521      0.00000000
  H      4    1      0.04651892      1.98813947     -0.00000000
  C      5    6     -1.21953563      0.40211669      0.00000000
  O      6    8     -2.25921553      1.03043814      0.00000000
  C      7    6      1.28797806      0.34644937     -0.00000000
  O      8    8      2.31273661      1.00537216     -0.00000000
  N      9    7      0.03446295      0.97739857     -0.00000000
  N     10    7     -1.17287765     -0.98229824      0.00000000
  C     11    6      1.20107039     -1.10433419     -0.00000000
  H     12    1      2.11220096     -1.67699125     -0.00000000
[GTO]
1    0
S    1    1.000000
   4.56324000E+03    1.96665000E-03 
S    1    1.000000
   6.82024000E+02    1.52306000E-02 
S    1    1.000000
   1.54973000E+02    7.61269000E-02 
S    1    1.000000
   4.44553000E+01    2.60801000E-01 
S    1    1.000000
   1.30290000E+01    6.16462000E-01 
S    1    1.000000
   1.82773000E+00    2.21006000E-01 
SP   3    1.000000
   2.09642000E+01    1.14660000E-01   4.02487000E-02 
   4.80331000E+00    9.19999000E-01   2.37594000E-01 
   1.45933000E+00   -3.03068000E-03   8.15854000E-01 
SP   1    1.000000
   4.83456000E-01    1.00000000E+00   1.00000000E+00 
SP   1    1.000000
   1.45585000E-01    1.00000000E+00   1.00000000E+00 
SP   1    1.000000
   4.38000000E-02    1.00000000E+00   1.00000000E+00 
SP   1    1.000000
   1.31927711E-02    1.00000000E+00   1.00000000E+00 
D    1    1.000000
   6.26000000E-01    1.00000000E+00 

2    0
S    3    1.000000
   3.38650000E+01    2.54938000E-02 
   5.09479000E+00    1.90373000E-01 
   1.15879000E+00    8.52161000E-01 
S    1    1.000000
   3.25840000E-01    1.00000000E+00 
S    1    1.000000
   1.02741000E-01    1.00000000E+00 
S    1    1.000000
   3.60000000E-02    1.00000000E+00 
P    1    1.000000
   7.50000000E-01    1.00000000E+00 

3    0
S    3    1.000000
   3.38650000E+01    2.54938000E-02 
   5.09479000E+00    1.90373000E-01 
   1.15879000E+00    8.52161000E-01 
S    1    1.000000
   3.25840000E-01    1.00000000E+00 
S    1    1.000000
   1.02741000E-01    1.00000000E+00 
S    1    1.000000
   3.60000000E-02    1.00000000E+00 
P    1    1.000000
   7.50000000E-01    1.00000000E+00 

4    0
S    3    1.000000
   3.38650000E+01    2.54938000E-02 
   5.09479000E+00    1.90373000E-01 
   1.15879000E+00    8.52161000E-01 
S    1    1.000000
   3.25840000E-01    1.00000000E+00 
S    1    1.000000
   1.02741000E-01    1.00000000E+00 
S    1    1.000000
   3.60000000E-02    1.00000000E+00 
P    1    1.000000
   7.50000000E-01    1.00000000E+00 

5    0
S    1    1.000000
   4.56324000E+03    1.96665000E-03 
S    1    1.000000
   6.82024000E+02    1.52306000E-02 
S    1    1.000000
   1.54973000E+02    7.61269000E-02 
S    1    1.000000
   4.44553000E+01    2.60801000E-01 
S    1    1.000000
   1.30290000E+01    6.16462000E-01 
S    1    1.000000
   1.82773000E+00    2.21006000E-01 
SP   3    1.000000
   2.09642000E+01    1.14660000E-01   4.02487000E-02 
   4.80331000E+00    9.19999000E-01   2.37594000E-01 
   1.45933000E+00   -3.03068000E-03   8.15854000E-01 
SP   1    1.000000
   4.83456000E-01    1.00000000E+00   1.00000000E+00 
SP   1    1.000000
   1.45585000E-01    1.00000000E+00   1.00000000E+00 
SP   1    1.000000
   4.38000000E-02    1.00000000E+00   1.00000000E+00 
SP   1    1.000000
   1.31927711E-02    1.00000000E+00   1.00000000E+00 
D    1    1.000000
   6.26000000E-01    1.00000000E+00 

6    0
S    1    1.000000
   8.58850000E+03    1.89515000E-03 
S    1    1.000000
   1.29723000E+03    1.43859000E-02 
S    1    1.000000
   2.99296000E+02    7.07320000E-02 
S    1    1.000000
   8.73771000E+01    2.40001000E-01 
S    1    1.000000
   2.56789000E+01    5.94797000E-01 
S    1    1.000000
   3.74004000E+00    2.80802000E-01 
SP   3    1.000000
   4.21175000E+01    1.13889000E-01   3.65114000E-02 
   9.62837000E+00    9.20811000E-01   2.37153000E-01 
   2.85332000E+00   -3.27447000E-03   8.19702000E-01 
SP   1    1.000000
   9.05661000E-01    1.00000000E+00   1.00000000E+00 
SP   1    1.000000
   2.55611000E-01    1.00000000E+00   1.00000000E+00 
SP   1    1.000000
   8.45000000E-02    1.00000000E+00   1.00000000E+00 
SP   1    1.000000
   2.54518072E-02    1.00000000E+00   1.00000000E+00 
D    1    1.000000
   1.29200000E+00    1.00000000E+00 

7    0
S    1    1.000000
   4.56324000E+03    1.96665000E-03 
S    1    1.000000
   6.82024000E+02    1.52306000E-02 
S    1    1.000000
   1.54973000E+02    7.61269000E-02 
S    1    1.000000
   4.44553000E+01    2.60801000E-01 
S    1    1.000000
   1.30290000E+01    6.16462000E-01 
S    1    1.000000
   1.82773000E+00    2.21006000E-01 
SP   3    1.000000
   2.09642000E+01    1.14660000E-01   4.02487000E-02 
   4.80331000E+00    9.19999000E-01   2.37594000E-01 
   1.45933000E+00   -3.03068000E-03   8.15854000E-01 
SP   1    1.000000
   4.83456000E-01    1.00000000E+00   1.00000000E+00 
SP   1    1.000000
   1.45585000E-01    1.00000000E+00   1.00000000E+00 
SP   1    1.000000
   4.38000000E-02    1.00000000E+00   1.00000000E+00 
SP   1    1.000000
   1.31927711E-02    1.00000000E+00   1.00000000E+00 
D    1    1.000000
   6.26000000E-01    1.00000000E+00 

8    0
S    1    1.000000
   8.58850000E+03    1.89515000E-03 
S    1    1.000000
   1.29723000E+03    1.43859000E-02 
S    1    1.000000
   2.99296000E+02    7.07320000E-02 
S    1    1.000000
   8.73771000E+01    2.40001000E-01 
S    1    1.000000
   2.56789000E+01    5.94797000E-01 
S    1    1.000000
   3.74004000E+00    2.80802000E-01 
SP   3    1.000000
   4.21175000E+01    1.13889000E-01   3.65114000E-02 
   9.62837000E+00    9.20811000E-01   2.37153000E-01 
   2.85332000E+00   -3.27447000E-03   8.19702000E-01 
SP   1    1.000000
   9.05661000E-01    1.00000000E+00   1.00000000E+00 
SP   1    1.000000
   2.55611000E-01    1.00000000E+00   1.00000000E+00 
SP   1    1.000000
   8.45000000E-02    1.00000000E+00   1.00000000E+00 
SP   1    1.000000
   2.54518072E-02    1.00000000E+00   1.00000000E+00 
D    1    1.000000
   1.29200000E+00    1.00000000E+00 

9    0
S    1    1.000000
   6.29348000E+03    1.96979000E-03 
S    1    1.000000
   9.49044000E+02    1.49613000E-02 
S    1    1.000000
   2.18776000E+02    7.35006000E-02 
S    1    1.000000
   6.36916000E+01    2.48937000E-01 
S    1    1.000000
   1.88282000E+01    6.02460000E-01 
S    1    1.000000
   2.72023000E+00    2.56202000E-01 
SP   3    1.000000
   3.06331000E+01    1.11906000E-01   3.83119000E-02 
   7.02614000E+00    9.21666000E-01   2.37403000E-01 
   2.11205000E+00   -2.56919000E-03   8.17592000E-01 
SP   1    1.000000
   6.84009000E-01    1.00000000E+00   1.00000000E+00 
SP   1    1.000000
   2.00878000E-01    1.00000000E+00   1.00000000E+00 
SP   1    1.000000
   6.39000000E-02    1.00000000E+00   1.00000000E+00 
SP   1    1.000000
   1.92469880E-02    1.00000000E+00   1.00000000E+00 
D    1    1.000000
   9.13000000E-01    1.00000000E+00 

10    0
S    1    1.000000
   6.29348000E+03    1.96979000E-03 
S    1    1.000000
   9.49044000E+02    1.49613000E-02 
S    1    1.000000
   2.18776000E+02    7.35006000E-02 
S    1    1.000000
   6.36916000E+01    2.48937000E-01 
S    1    1.000000
   1.88282000E+01    6.02460000E-01 
S    1    1.000000
   2.72023000E+00    2.56202000E-01 
SP   3    1.000000
   3.06331000E+01    1.11906000E-01   3.83119000E-02 
   7.02614000E+00    9.21666000E-01   2.37403000E-01 
   2.11205000E+00   -2.56919000E-03   8.17592000E-01 
SP   1    1.000000
   6.84009000E-01    1.00000000E+00   1.00000000E+00 
SP   1    1.000000
   2.00878000E-01    1.00000000E+00   1.00000000E+00 
SP   1    1.000000
   6.39000000E-02    1.00000000E+00   1.00000000E+00 
SP   1    1.000000
   1.92469880E-02    1.00000000E+00   1.00000000E+00 
D    1    1.000000
   9.13000000E-01    1.00000000E+00 

11    0
S    1    1.000000
   4.56324000E+03    1.96665000E-03 
S    1    1.000000
   6.82024000E+02    1.52306000E-02 
S    1    1.000000
   1.54973000E+02    7.61269000E-02 
S    1    1.000000
   4.44553000E+01    2.60801000E-01 
S    1    1.000000
   1.30290000E+01    6.16462000E-01 
S    1    1.000000
   1.82773000E+00    2.21006000E-01 
SP   3    1.000000
   2.09642000E+01    1.14660000E-01   4.02487000E-02 
   4.80331000E+00    9.19999000E-01   2.37594000E-01 
   1.45933000E+00   -3.03068000E-03   8.15854000E-01 
SP   1    1.000000
   4.83456000E-01    1.00000000E+00   1.00000000E+00 
SP   1    1.000000
   1.45585000E-01    1.00000000E+00   1.00000000E+00 
SP   1    1.000000
   4.38000000E-02    1.00000000E+00   1.00000000E+00 
SP   1    1.000000
   1.31927711E-02    1.00000000E+00   1.00000000E+00 
D    1    1.000000
   6.26000000E-01    1.00000000E+00 

12    0
S    3    1.000000
   3.38650000E+01    2.54938000E-02 
   5.09479000E+00    1.90373000E-01 
   1.15879000E+00    8.52161000E-01 
S    1    1.000000
   3.25840000E-01    1.00000000E+00 
S    1    1.000000
   1.02741000E-01    1.00000000E+00 
S    1    1.000000
   3.60000000E-02    1.00000000E+00 
P    1    1.000000
   7.50000000E-01    1.00000000E+00 

[MO]
Sym=X
Ene=0.000555
Spin=Alpha
Occup=1
1    0.000106390959
2    0.000823716807
3    0.0041086351
4    0.014108662
5    0.0333108453
6    0.0121871189
7    0.0447234728
8    -0.000239286953
9    -4.45246833e-05
10    -5.22349136e-16
11    -0.000342768292
12    -0.000464577545
13    -0.000305590179
14    1.89529067e-15
15    0.00111020261
16    0.00026791576
17    0.000675929043
18    -2.76238665e-16
19    0.00294126121
20    0.00010092343
21    0.00153056606
22    -4.81063437e-14
23    0.000224969678
24    -1.47129903e-05
25    0.000269559334
26    6.94853364e-14
27    -0.000266359116
28    2.71050334e-16
29    1.04787859e-06
30    7.58008576e-16
31    -0.000199913613
32    -2.612157e-06
33    -4.91344676e-05
34    -0.000101525566
35    -0.000328667245
36    -8.21287698e-06
37    7.85650061e-06
38    -1.37874608e-15
39    8.49572172e-06
40    -2.57196045e-05
41    0.000429830978
42    0.000757965816
43    -5.53676558e-05
44    -3.85553758e-05
45    -5.59757558e-17
46    -1.11413905e-05
47    -4.3928648e-05
48    -1.6731809e-05
49    -0.000221107845
50    -5.07604997e-06
51    3.79259771e-06
52    1.19496051e-15
53    7.60568311e-05
54    0.000588768502
55    0.0029373033
56    0.010083671
57    0.0238293134
58    0.00869067077
59    0.0318923506
60    4.84751384e-05
61    -3.29823354e-05
62    -1.6130016e-15
63    4.58528232e-05
64    -6.12212139e-05
65    4.05031932e-05
66    -1.9095587e-16
67    0.000721849335
68    0.000473668628
69    -0.000251114686
70    -4.18209239e-15
71    -8.04157841e-05
72    0.000132493165
73    0.00018505293
74    -7.26219223e-14
75    -6.4492426e-05
76    9.45641594e-05
77    -3.44125525e-05
78    -5.78941216e-14
79    -2.44519442e-05
80    4.96043202e-16
81    -2.57518044e-05
82    1.12206565e-15
83    3.33200714e-06
84    -1.50221652e-07
85    -1.14262872e-06
86    -5.61651239e-06
87    -1.90956763e-05
88    -4.70845261e-05
89    -2.45083948e-05
90    -7.38311806e-05
91    1.66007888e-05
92    -9.24477983e-06
93    -6.22161616e-16
94    2.35028067e-05
95    2.50166998e-05
96    -1.92431982e-05
97    -2.34013974e-15
98    6.21143947e-05
99    2.04299363e-05
100    -1.12209698e-05
101    -2.80573075e-15
102    0.000504421429
103    0.000148257026
104    -8.74207539e-05
105    2.86727373e-15
106    -5.65226861e-05
107    -9.08317718e-05
108    -0.000105942656
109    2.70551697e-14
110    -1.64938344e-05
111    1.29127342e-16
112    -9.15122433e-06
113    -3.79257532e-16
114    6.78043349e-06
115    -5.29872149e-05
116    -0.000410220318
117    -0.00204616555
118    -0.00702517068
119    -0.0165866059
120    -0.00591482264
121    -0.0222189336
122    4.3883579e-05
123    5.74623454e-05
124    4.28255029e-15
125    -0.000616789117
126    -9.61654276e-06
127    0.000632034234
128    3.92418951e-15
129    0.000555376473
130    -0.000492767428
131    -0.000933211208
132    1.34392417e-14
133    0.00218717527
134    -0.000795340726
135    -0.00120916037
136    -5.72974484e-14
137    0.000364252757
138    9.21790819e-05
139    -1.87867851e-05
140    4.22974111e-14
141    -7.17932399e-05
142    3.06294765e-16
143    8.40365843e-05
144    3.66455044e-16
145    0.00035070307
146    1.29368444e-07
147    9.43734555e-07
148    4.92313022e-06
149    1.56679565e-05
150    4.94958629e-05
151    6.14508692e-05
152    3.53322385e-05
153    2.33344262e-06
154    -1.65160827e-05
155    2.0765508e-15
156    -0.000101859993
157    6.96202418e-05
158    5.87477598e-05
159    5.47453747e-15
160    0.000208875133
161    -0.000132227053
162    -3.78557979e-06
163    4.01388924e-15
164    0.000797330497
165    -0.000100049894
166    -3.23260479e-05
167    1.31114964e-14
168    0.00191740492
169    -0.000386479039
170    -0.000102772164
171    2.75297788e-15
172    -4.02795012e-05
173    -6.74834538e-16
174    7.04309994e-06
175    -7.07131103e-16
176    1.90157629e-05
177    9.15485175e-08
178    6.56824872e-07
179    3.50032647e-06
180    1.07782206e-05
181    3.63794981e-05
182    4.98054781e-05
183    1.15701718e-05
184    1.65452234e-05
185    -1.44695711e-05
186    -7.80038199e-16
187    -3.3303974e-05
188    -0.000164747899
189    3.11286894e-05
190    6.43646071e-15
191    -0.000292160454
192    0.000211083949
193    0.000227885536
194    -1.26035798e-14
195    -0.000608695692
196    0.000351578897
197    0.000268107197
198    5.32232579e-14
199    -0.000673250733
200    -0.000652857621
201    0.000179256743
202    3.68544848e-14
203    6.38833912e-05
204    -2.76686088e-16
205    3.60838437e-06
206    7.04605023e-16
207    -1.21303324e-05
208    -6.91361323e-07
209    -5.28842217e-06
210    -2.57596636e-05
211    -8.8123277e-05
212    -0.000207237785
213    -7.88171188e-05
214    -0.000317272063
215    3.37255508e-05
216    -6.72081865e-06
217    -2.79786448e-15
218    3.7631268e-05
219    -2.8670492e-05
220    4.8012953e-05
221    2.08156669e-15
222    -0.000311319379
223    -0.000150474708
224    -0.000193489485
225    -1.38179269e-14
226    -0.00113836298
227    -0.000475507339
228    -0.000249073857
229    4.65845399e-14
230    -0.000647795829
231    -8.46214171e-05
232    -0.000215212295
233    5.00160562e-15
234    -6.24269694e-06
235    -3.26063535e-17
236    -7.57091602e-06
237    2.653847e-16
238    -4.41035182e-05
239    -0.00110016148
240    -0.00851717444
241    -0.0424861329
242    -0.1458759
243    -0.344585466
244    -0.12601715
245    -0.4612786
246    0.000166900812
247    -0.000241534706
248    7.49420174e-16
249    -0.00180264473
250    9.89365746e-06
251    0.000114196668
252    5.90118817e-15
253    -0.00190278964
254    0.00083442444
255    -0.000608812578
256    -3.55127396e-15
257    -0.00515078237
258    0.00108029863
259    -0.0011748577
260    6.68020732e-14
261    -0.000319826491
262    -0.000111000166
263    -0.000252699791
264    -7.68762933e-14
265    -5.11357931e-05
266    6.54324488e-16
267    0.000100619387
268    1.79710852e-16
269    -5.51751334e-05
270    -0.000373831718
271    -0.000445798557
272    -0.000307005699
273    -0.000515823074
274    0.000257097916
275    -0.000156573386
276    9.84131331e-16
[5D]