[Molden Format]
[Atoms] (Angs)
  C      1    6     -0.00714236     -1.70213747     -0.00000000
  H      2    1     -2.06882847     -1.44022412      0.00000000
  H      3    1     -0.12337987     -2.77567521      0.00000000
  H      4    1      0.04651892      1.98813947     -0.00000000
  C      5    6     -1.21953563      0.40211669      0.00000000
  O      6    8     -2.25921553      1.03043814      0.00000000
  C      7    6      1.28797806      0.34644937     -0.00000000
  O      8    8      2.31273661      1.00537216     -0.00000000
  N      9    7      0.03446295      0.97739857     -0.00000000
  N     10    7     -1.17287765     -0.98229824      0.00000000
  C     11    6      1.20107039     -1.10433419     -0.00000000
  H     12    1      2.11220096     -1.67699125     -0.00000000
[GTO]
1    0
S    1    1.000000
   4.56324000E+03    1.96665000E-03 
S    1    1.000000
   6.82024000E+02    1.52306000E-02 
S    1    1.000000
   1.54973000E+02    7.61269000E-02 
S    1    1.000000
   4.44553000E+01    2.60801000E-01 
S    1    1.000000
   1.30290000E+01    6.16462000E-01 
S    1    1.000000
   1.82773000E+00    2.21006000E-01 
SP   3    1.000000
   2.09642000E+01    1.14660000E-01   4.02487000E-02 
   4.80331000E+00    9.19999000E-01   2.37594000E-01 
   1.45933000E+00   -3.03068000E-03   8.15854000E-01 
SP   1    1.000000
   4.83456000E-01    1.00000000E+00   1.00000000E+00 
SP   1    1.000000
   1.45585000E-01    1.00000000E+00   1.00000000E+00 
SP   1    1.000000
   4.38000000E-02    1.00000000E+00   1.00000000E+00 
SP   1    1.000000
   1.31927711E-02    1.00000000E+00   1.00000000E+00 
D    1    1.000000
   6.26000000E-01    1.00000000E+00 

2    0
S    3    1.000000
   3.38650000E+01    2.54938000E-02 
   5.09479000E+00    1.90373000E-01 
   1.15879000E+00    8.52161000E-01 
S    1    1.000000
   3.25840000E-01    1.00000000E+00 
S    1    1.000000
   1.02741000E-01    1.00000000E+00 
S    1    1.000000
   3.60000000E-02    1.00000000E+00 
P    1    1.000000
   7.50000000E-01    1.00000000E+00 

3    0
S    3    1.000000
   3.38650000E+01    2.54938000E-02 
   5.09479000E+00    1.90373000E-01 
   1.15879000E+00    8.52161000E-01 
S    1    1.000000
   3.25840000E-01    1.00000000E+00 
S    1    1.000000
   1.02741000E-01    1.00000000E+00 
S    1    1.000000
   3.60000000E-02    1.00000000E+00 
P    1    1.000000
   7.50000000E-01    1.00000000E+00 

4    0
S    3    1.000000
   3.38650000E+01    2.54938000E-02 
   5.09479000E+00    1.90373000E-01 
   1.15879000E+00    8.52161000E-01 
S    1    1.000000
   3.25840000E-01    1.00000000E+00 
S    1    1.000000
   1.02741000E-01    1.00000000E+00 
S    1    1.000000
   3.60000000E-02    1.00000000E+00 
P    1    1.000000
   7.50000000E-01    1.00000000E+00 

5    0
S    1    1.000000
   4.56324000E+03    1.96665000E-03 
S    1    1.000000
   6.82024000E+02    1.52306000E-02 
S    1    1.000000
   1.54973000E+02    7.61269000E-02 
S    1    1.000000
   4.44553000E+01    2.60801000E-01 
S    1    1.000000
   1.30290000E+01    6.16462000E-01 
S    1    1.000000
   1.82773000E+00    2.21006000E-01 
SP   3    1.000000
   2.09642000E+01    1.14660000E-01   4.02487000E-02 
   4.80331000E+00    9.19999000E-01   2.37594000E-01 
   1.45933000E+00   -3.03068000E-03   8.15854000E-01 
SP   1    1.000000
   4.83456000E-01    1.00000000E+00   1.00000000E+00 
SP   1    1.000000
   1.45585000E-01    1.00000000E+00   1.00000000E+00 
SP   1    1.000000
   4.38000000E-02    1.00000000E+00   1.00000000E+00 
SP   1    1.000000
   1.31927711E-02    1.00000000E+00   1.00000000E+00 
D    1    1.000000
   6.26000000E-01    1.00000000E+00 

6    0
S    1    1.000000
   8.58850000E+03    1.89515000E-03 
S    1    1.000000
   1.29723000E+03    1.43859000E-02 
S    1    1.000000
   2.99296000E+02    7.07320000E-02 
S    1    1.000000
   8.73771000E+01    2.40001000E-01 
S    1    1.000000
   2.56789000E+01    5.94797000E-01 
S    1    1.000000
   3.74004000E+00    2.80802000E-01 
SP   3    1.000000
   4.21175000E+01    1.13889000E-01   3.65114000E-02 
   9.62837000E+00    9.20811000E-01   2.37153000E-01 
   2.85332000E+00   -3.27447000E-03   8.19702000E-01 
SP   1    1.000000
   9.05661000E-01    1.00000000E+00   1.00000000E+00 
SP   1    1.000000
   2.55611000E-01    1.00000000E+00   1.00000000E+00 
SP   1    1.000000
   8.45000000E-02    1.00000000E+00   1.00000000E+00 
SP   1    1.000000
   2.54518072E-02    1.00000000E+00   1.00000000E+00 
D    1    1.000000
   1.29200000E+00    1.00000000E+00 

7    0
S    1    1.000000
   4.56324000E+03    1.96665000E-03 
S    1    1.000000
   6.82024000E+02    1.52306000E-02 
S    1    1.000000
   1.54973000E+02    7.61269000E-02 
S    1    1.000000
   4.44553000E+01    2.60801000E-01 
S    1    1.000000
   1.30290000E+01    6.16462000E-01 
S    1    1.000000
   1.82773000E+00    2.21006000E-01 
SP   3    1.000000
   2.09642000E+01    1.14660000E-01   4.02487000E-02 
   4.80331000E+00    9.19999000E-01   2.37594000E-01 
   1.45933000E+00   -3.03068000E-03   8.15854000E-01 
SP   1    1.000000
   4.83456000E-01    1.00000000E+00   1.00000000E+00 
SP   1    1.000000
   1.45585000E-01    1.00000000E+00   1.00000000E+00 
SP   1    1.000000
   4.38000000E-02    1.00000000E+00   1.00000000E+00 
SP   1    1.000000
   1.31927711E-02    1.00000000E+00   1.00000000E+00 
D    1    1.000000
   6.26000000E-01    1.00000000E+00 

8    0
S    1    1.000000
   8.58850000E+03    1.89515000E-03 
S    1    1.000000
   1.29723000E+03    1.43859000E-02 
S    1    1.000000
   2.99296000E+02    7.07320000E-02 
S    1    1.000000
   8.73771000E+01    2.40001000E-01 
S    1    1.000000
   2.56789000E+01    5.94797000E-01 
S    1    1.000000
   3.74004000E+00    2.80802000E-01 
SP   3    1.000000
   4.21175000E+01    1.13889000E-01   3.65114000E-02 
   9.62837000E+00    9.20811000E-01   2.37153000E-01 
   2.85332000E+00   -3.27447000E-03   8.19702000E-01 
SP   1    1.000000
   9.05661000E-01    1.00000000E+00   1.00000000E+00 
SP   1    1.000000
   2.55611000E-01    1.00000000E+00   1.00000000E+00 
SP   1    1.000000
   8.45000000E-02    1.00000000E+00   1.00000000E+00 
SP   1    1.000000
   2.54518072E-02    1.00000000E+00   1.00000000E+00 
D    1    1.000000
   1.29200000E+00    1.00000000E+00 

9    0
S    1    1.000000
   6.29348000E+03    1.96979000E-03 
S    1    1.000000
   9.49044000E+02    1.49613000E-02 
S    1    1.000000
   2.18776000E+02    7.35006000E-02 
S    1    1.000000
   6.36916000E+01    2.48937000E-01 
S    1    1.000000
   1.88282000E+01    6.02460000E-01 
S    1    1.000000
   2.72023000E+00    2.56202000E-01 
SP   3    1.000000
   3.06331000E+01    1.11906000E-01   3.83119000E-02 
   7.02614000E+00    9.21666000E-01   2.37403000E-01 
   2.11205000E+00   -2.56919000E-03   8.17592000E-01 
SP   1    1.000000
   6.84009000E-01    1.00000000E+00   1.00000000E+00 
SP   1    1.000000
   2.00878000E-01    1.00000000E+00   1.00000000E+00 
SP   1    1.000000
   6.39000000E-02    1.00000000E+00   1.00000000E+00 
SP   1    1.000000
   1.92469880E-02    1.00000000E+00   1.00000000E+00 
D    1    1.000000
   9.13000000E-01    1.00000000E+00 

10    0
S    1    1.000000
   6.29348000E+03    1.96979000E-03 
S    1    1.000000
   9.49044000E+02    1.49613000E-02 
S    1    1.000000
   2.18776000E+02    7.35006000E-02 
S    1    1.000000
   6.36916000E+01    2.48937000E-01 
S    1    1.000000
   1.88282000E+01    6.02460000E-01 
S    1    1.000000
   2.72023000E+00    2.56202000E-01 
SP   3    1.000000
   3.06331000E+01    1.11906000E-01   3.83119000E-02 
   7.02614000E+00    9.21666000E-01   2.37403000E-01 
   2.11205000E+00   -2.56919000E-03   8.17592000E-01 
SP   1    1.000000
   6.84009000E-01    1.00000000E+00   1.00000000E+00 
SP   1    1.000000
   2.00878000E-01    1.00000000E+00   1.00000000E+00 
SP   1    1.000000
   6.39000000E-02    1.00000000E+00   1.00000000E+00 
SP   1    1.000000
   1.92469880E-02    1.00000000E+00   1.00000000E+00 
D    1    1.000000
   9.13000000E-01    1.00000000E+00 

11    0
S    1    1.000000
   4.56324000E+03    1.96665000E-03 
S    1    1.000000
   6.82024000E+02    1.52306000E-02 
S    1    1.000000
   1.54973000E+02    7.61269000E-02 
S    1    1.000000
   4.44553000E+01    2.60801000E-01 
S    1    1.000000
   1.30290000E+01    6.16462000E-01 
S    1    1.000000
   1.82773000E+00    2.21006000E-01 
SP   3    1.000000
   2.09642000E+01    1.14660000E-01   4.02487000E-02 
   4.80331000E+00    9.19999000E-01   2.37594000E-01 
   1.45933000E+00   -3.03068000E-03   8.15854000E-01 
SP   1    1.000000
   4.83456000E-01    1.00000000E+00   1.00000000E+00 
SP   1    1.000000
   1.45585000E-01    1.00000000E+00   1.00000000E+00 
SP   1    1.000000
   4.38000000E-02    1.00000000E+00   1.00000000E+00 
SP   1    1.000000
   1.31927711E-02    1.00000000E+00   1.00000000E+00 
D    1    1.000000
   6.26000000E-01    1.00000000E+00 

12    0
S    3    1.000000
   3.38650000E+01    2.54938000E-02 
   5.09479000E+00    1.90373000E-01 
   1.15879000E+00    8.52161000E-01 
S    1    1.000000
   3.25840000E-01    1.00000000E+00 
S    1    1.000000
   1.02741000E-01    1.00000000E+00 
S    1    1.000000
   3.60000000E-02    1.00000000E+00 
P    1    1.000000
   7.50000000E-01    1.00000000E+00 

[MO]
Sym=X
Ene=0.073967
Spin=Alpha
Occup=1
1    -1.73081964e-05
2    -0.000133916844
3    -0.000668437196
4    -0.00229256881
5    -0.00543357987
6    -0.0019388288
7    -0.00716084164
8    -0.000116853097
9    -7.9511984e-05
10    -4.67646682e-16
11    -0.000537405512
12    -0.000583097003
13    -0.000303173653
14    1.50177059e-15
15    0.000975137399
16    0.000298756491
17    0.000593287682
18    6.46309141e-16
19    0.00265543548
20    0.000147065083
21    0.00139600717
22    -5.88996399e-14
23    0.000222159529
24    -9.62143956e-06
25    0.000271424882
26    7.4243519e-14
27    -0.000306215434
28    2.66959298e-16
29    2.66036899e-05
30    7.48618677e-16
31    -0.000211460643
32    -8.1173035e-06
33    -5.56750372e-05
34    -0.000110122941
35    -0.000329861458
36    -1.60918344e-05
37    4.74582535e-06
38    -1.39371275e-15
39    -3.48821555e-05
40    -7.90978104e-05
41    0.00040786257
42    0.000688404241
43    -6.00512411e-05
44    -7.42707905e-05
45    -3.00126482e-17
46    -1.50853189e-05
47    -4.15749414e-05
48    -3.8158203e-05
49    -0.000245682935
50    -5.20197731e-06
51    6.98361281e-06
52    1.07190368e-15
53    5.77827204e-07
54    4.44575014e-06
55    2.23761859e-05
56    7.6052219e-05
57    0.000186968666
58    9.67876098e-05
59    0.000224548094
60    5.45792285e-06
61    -4.82685521e-06
62    -1.9979088e-15
63    -7.82018251e-05
64    -1.39449741e-05
65    1.70442448e-05
66    -1.96304462e-16
67    0.000603448221
68    0.000527250797
69    -0.000285798432
70    -5.34491982e-15
71    -0.000134337691
72    0.000220006351
73    9.15979025e-05
74    -8.2694967e-14
75    -6.68176703e-05
76    7.85726427e-05
77    -4.23673487e-05
78    -6.47973385e-14
79    -3.66870608e-06
80    4.65776065e-16
81    -9.83547795e-06
82    1.17801229e-15
83    -2.98770586e-06
84    6.5367453e-09
85    4.02971476e-08
86    2.65467791e-07
87    6.4946103e-07
88    4.10089362e-06
89    1.03181245e-05
90    -2.86998861e-06
91    2.89034155e-06
92    -8.64341025e-07
93    -8.22230012e-16
94    -2.46790311e-05
95    -1.47212497e-05
96    5.57013956e-06
97    -2.58703183e-15
98    0.000116005831
99    5.55015488e-05
100    -3.1179458e-05
101    -3.51233014e-15
102    0.000620806902
103    0.000150216743
104    -9.36386415e-05
105    3.68297011e-15
106    0.000159444082
107    -5.09434307e-05
108    -0.000121605815
109    2.89704821e-14
110    1.65800801e-08
111    2.03924733e-16
112    -1.34819462e-06
113    -4.70353281e-16
114    -1.29176064e-06
115    -6.4087627e-05
116    -0.000496161249
117    -0.00247483617
118    -0.00849707319
119    -0.0200620303
120    -0.00717088402
121    -0.0268805314
122    4.9343564e-05
123    5.03426454e-05
124    4.11913206e-15
125    -0.000650366606
126    -1.04794029e-05
127    0.000651208553
128    3.51513146e-15
129    0.000516206573
130    -0.000498109873
131    -0.00093849402
132    1.38758698e-14
133    0.00201319722
134    -0.000800910821
135    -0.00120864156
136    -7.17459743e-14
137    0.000324168867
138    8.30216528e-05
139    -2.70291515e-06
140    4.54162833e-14
141    -7.88811265e-05
142    3.08351719e-16
143    8.74560831e-05
144    3.89838685e-16
145    0.000356561928
146    5.21038087e-08
147    3.53940936e-07
148    2.04781055e-06
149    5.82514583e-06
150    2.56388232e-05
151    5.22438955e-05
152    1.295608e-07
153    4.27836981e-06
154    -1.5568718e-05
155    1.88874854e-15
156    -0.000110680734
157    7.77812054e-05
158    6.51233919e-05
159    5.66800941e-15
160    0.000209832702
161    -0.000139652975
162    -8.61029932e-06
163    2.76438722e-15
164    0.000861720192
165    -0.000114256561
166    -3.66184851e-05
167    1.56439055e-14
168    0.00195376815
169    -0.000398253219
170    -0.000106305656
171    3.39782488e-15
172    -4.33170713e-05
173    -6.42233861e-16
174    8.32154149e-06
175    -6.40494435e-16
176    1.84055894e-05
177    -4.00796483e-08
178    -3.61040681e-07
179    -1.36571521e-06
180    -6.16579719e-06
181    -4.62976998e-07
182    5.17468225e-05
183    -5.08496503e-05
184    2.12675467e-05
185    -1.20515144e-05
186    -1.18589819e-15
187    -8.50049253e-05
188    -0.000129158802
189    5.79690947e-05
190    6.81928125e-15
191    -0.00029279117
192    0.000206367356
193    0.000229634685
194    -1.54190762e-14
195    -0.000584651799
196    0.000311800908
197    0.000313243587
198    6.19527761e-14
199    -0.000767832546
200    -0.000622954775
201    0.000192071548
202    4.41280535e-14
203    5.05603149e-05
204    -2.51002151e-16
205    1.18932292e-05
206    7.34295547e-16
207    -2.92090269e-05
208    -1.38240527e-07
209    -1.10642413e-06
210    -5.03581363e-06
211    -1.85756351e-05
212    -3.11503046e-05
213    3.37872233e-05
214    -9.22252666e-05
215    2.60226808e-05
216    -7.74547568e-06
217    -3.15925454e-15
218    -7.37481126e-05
219    -0.000109011966
220    4.98271014e-05
221    2.68313076e-15
222    -0.000298118955
223    -0.000153434335
224    -0.000192730718
225    -1.6196877e-14
226    -0.00096796617
227    -0.000438565316
228    -0.000276599838
229    5.41743207e-14
230    -0.000599351258
231    -3.90776431e-05
232    -0.000246992149
233    1.01325216e-14
234    3.24933562e-05
235    -4.19657884e-17
236    1.39822471e-05
237    2.24654959e-16
238    -4.32005662e-05
239    -0.00110713071
240    -0.00857111269
241    -0.0427552904
242    -0.146799585
243    -0.346771362
244    -0.126822308
245    -0.464184933
246    0.000184265395
247    -0.000235508598
248    5.8043719e-16
249    -0.00184090434
250    4.06655992e-05
251    0.00012075981
252    6.06354154e-15
253    -0.00183172861
254    0.000780673604
255    -0.000584201848
256    -5.26828694e-15
257    -0.00500062034
258    0.0010305269
259    -0.00108658387
260    8.00664399e-14
261    -0.000297696127
262    -9.87133904e-05
263    -0.000242729626
264    -8.23328822e-14
265    -7.18522905e-05
266    5.60670579e-16
267    9.56322661e-05
268    2.59237039e-16
269    -6.96690972e-05
270    -0.000379649693
271    -0.000455552816
272    -0.000267526967
273    -0.000482324957
274    0.000269592233
275    -0.000157093481
276    1.00749968e-15
[5D]