[Molden Format]
[Atoms] (Angs)
  C      1    6     -0.00714236     -1.70213747     -0.00000000
  H      2    1     -2.06882847     -1.44022412      0.00000000
  H      3    1     -0.12337987     -2.77567521      0.00000000
  H      4    1      0.04651892      1.98813947     -0.00000000
  C      5    6     -1.21953563      0.40211669      0.00000000
  O      6    8     -2.25921553      1.03043814      0.00000000
  C      7    6      1.28797806      0.34644937     -0.00000000
  O      8    8      2.31273661      1.00537216     -0.00000000
  N      9    7      0.03446295      0.97739857     -0.00000000
  N     10    7     -1.17287765     -0.98229824      0.00000000
  C     11    6      1.20107039     -1.10433419     -0.00000000
  H     12    1      2.11220096     -1.67699125     -0.00000000
[GTO]
1    0
S    1    1.000000
   4.56324000E+03    1.96665000E-03 
S    1    1.000000
   6.82024000E+02    1.52306000E-02 
S    1    1.000000
   1.54973000E+02    7.61269000E-02 
S    1    1.000000
   4.44553000E+01    2.60801000E-01 
S    1    1.000000
   1.30290000E+01    6.16462000E-01 
S    1    1.000000
   1.82773000E+00    2.21006000E-01 
SP   3    1.000000
   2.09642000E+01    1.14660000E-01   4.02487000E-02 
   4.80331000E+00    9.19999000E-01   2.37594000E-01 
   1.45933000E+00   -3.03068000E-03   8.15854000E-01 
SP   1    1.000000
   4.83456000E-01    1.00000000E+00   1.00000000E+00 
SP   1    1.000000
   1.45585000E-01    1.00000000E+00   1.00000000E+00 
SP   1    1.000000
   4.38000000E-02    1.00000000E+00   1.00000000E+00 
SP   1    1.000000
   1.31927711E-02    1.00000000E+00   1.00000000E+00 
D    1    1.000000
   6.26000000E-01    1.00000000E+00 

2    0
S    3    1.000000
   3.38650000E+01    2.54938000E-02 
   5.09479000E+00    1.90373000E-01 
   1.15879000E+00    8.52161000E-01 
S    1    1.000000
   3.25840000E-01    1.00000000E+00 
S    1    1.000000
   1.02741000E-01    1.00000000E+00 
S    1    1.000000
   3.60000000E-02    1.00000000E+00 
P    1    1.000000
   7.50000000E-01    1.00000000E+00 

3    0
S    3    1.000000
   3.38650000E+01    2.54938000E-02 
   5.09479000E+00    1.90373000E-01 
   1.15879000E+00    8.52161000E-01 
S    1    1.000000
   3.25840000E-01    1.00000000E+00 
S    1    1.000000
   1.02741000E-01    1.00000000E+00 
S    1    1.000000
   3.60000000E-02    1.00000000E+00 
P    1    1.000000
   7.50000000E-01    1.00000000E+00 

4    0
S    3    1.000000
   3.38650000E+01    2.54938000E-02 
   5.09479000E+00    1.90373000E-01 
   1.15879000E+00    8.52161000E-01 
S    1    1.000000
   3.25840000E-01    1.00000000E+00 
S    1    1.000000
   1.02741000E-01    1.00000000E+00 
S    1    1.000000
   3.60000000E-02    1.00000000E+00 
P    1    1.000000
   7.50000000E-01    1.00000000E+00 

5    0
S    1    1.000000
   4.56324000E+03    1.96665000E-03 
S    1    1.000000
   6.82024000E+02    1.52306000E-02 
S    1    1.000000
   1.54973000E+02    7.61269000E-02 
S    1    1.000000
   4.44553000E+01    2.60801000E-01 
S    1    1.000000
   1.30290000E+01    6.16462000E-01 
S    1    1.000000
   1.82773000E+00    2.21006000E-01 
SP   3    1.000000
   2.09642000E+01    1.14660000E-01   4.02487000E-02 
   4.80331000E+00    9.19999000E-01   2.37594000E-01 
   1.45933000E+00   -3.03068000E-03   8.15854000E-01 
SP   1    1.000000
   4.83456000E-01    1.00000000E+00   1.00000000E+00 
SP   1    1.000000
   1.45585000E-01    1.00000000E+00   1.00000000E+00 
SP   1    1.000000
   4.38000000E-02    1.00000000E+00   1.00000000E+00 
SP   1    1.000000
   1.31927711E-02    1.00000000E+00   1.00000000E+00 
D    1    1.000000
   6.26000000E-01    1.00000000E+00 

6    0
S    1    1.000000
   8.58850000E+03    1.89515000E-03 
S    1    1.000000
   1.29723000E+03    1.43859000E-02 
S    1    1.000000
   2.99296000E+02    7.07320000E-02 
S    1    1.000000
   8.73771000E+01    2.40001000E-01 
S    1    1.000000
   2.56789000E+01    5.94797000E-01 
S    1    1.000000
   3.74004000E+00    2.80802000E-01 
SP   3    1.000000
   4.21175000E+01    1.13889000E-01   3.65114000E-02 
   9.62837000E+00    9.20811000E-01   2.37153000E-01 
   2.85332000E+00   -3.27447000E-03   8.19702000E-01 
SP   1    1.000000
   9.05661000E-01    1.00000000E+00   1.00000000E+00 
SP   1    1.000000
   2.55611000E-01    1.00000000E+00   1.00000000E+00 
SP   1    1.000000
   8.45000000E-02    1.00000000E+00   1.00000000E+00 
SP   1    1.000000
   2.54518072E-02    1.00000000E+00   1.00000000E+00 
D    1    1.000000
   1.29200000E+00    1.00000000E+00 

7    0
S    1    1.000000
   4.56324000E+03    1.96665000E-03 
S    1    1.000000
   6.82024000E+02    1.52306000E-02 
S    1    1.000000
   1.54973000E+02    7.61269000E-02 
S    1    1.000000
   4.44553000E+01    2.60801000E-01 
S    1    1.000000
   1.30290000E+01    6.16462000E-01 
S    1    1.000000
   1.82773000E+00    2.21006000E-01 
SP   3    1.000000
   2.09642000E+01    1.14660000E-01   4.02487000E-02 
   4.80331000E+00    9.19999000E-01   2.37594000E-01 
   1.45933000E+00   -3.03068000E-03   8.15854000E-01 
SP   1    1.000000
   4.83456000E-01    1.00000000E+00   1.00000000E+00 
SP   1    1.000000
   1.45585000E-01    1.00000000E+00   1.00000000E+00 
SP   1    1.000000
   4.38000000E-02    1.00000000E+00   1.00000000E+00 
SP   1    1.000000
   1.31927711E-02    1.00000000E+00   1.00000000E+00 
D    1    1.000000
   6.26000000E-01    1.00000000E+00 

8    0
S    1    1.000000
   8.58850000E+03    1.89515000E-03 
S    1    1.000000
   1.29723000E+03    1.43859000E-02 
S    1    1.000000
   2.99296000E+02    7.07320000E-02 
S    1    1.000000
   8.73771000E+01    2.40001000E-01 
S    1    1.000000
   2.56789000E+01    5.94797000E-01 
S    1    1.000000
   3.74004000E+00    2.80802000E-01 
SP   3    1.000000
   4.21175000E+01    1.13889000E-01   3.65114000E-02 
   9.62837000E+00    9.20811000E-01   2.37153000E-01 
   2.85332000E+00   -3.27447000E-03   8.19702000E-01 
SP   1    1.000000
   9.05661000E-01    1.00000000E+00   1.00000000E+00 
SP   1    1.000000
   2.55611000E-01    1.00000000E+00   1.00000000E+00 
SP   1    1.000000
   8.45000000E-02    1.00000000E+00   1.00000000E+00 
SP   1    1.000000
   2.54518072E-02    1.00000000E+00   1.00000000E+00 
D    1    1.000000
   1.29200000E+00    1.00000000E+00 

9    0
S    1    1.000000
   6.29348000E+03    1.96979000E-03 
S    1    1.000000
   9.49044000E+02    1.49613000E-02 
S    1    1.000000
   2.18776000E+02    7.35006000E-02 
S    1    1.000000
   6.36916000E+01    2.48937000E-01 
S    1    1.000000
   1.88282000E+01    6.02460000E-01 
S    1    1.000000
   2.72023000E+00    2.56202000E-01 
SP   3    1.000000
   3.06331000E+01    1.11906000E-01   3.83119000E-02 
   7.02614000E+00    9.21666000E-01   2.37403000E-01 
   2.11205000E+00   -2.56919000E-03   8.17592000E-01 
SP   1    1.000000
   6.84009000E-01    1.00000000E+00   1.00000000E+00 
SP   1    1.000000
   2.00878000E-01    1.00000000E+00   1.00000000E+00 
SP   1    1.000000
   6.39000000E-02    1.00000000E+00   1.00000000E+00 
SP   1    1.000000
   1.92469880E-02    1.00000000E+00   1.00000000E+00 
D    1    1.000000
   9.13000000E-01    1.00000000E+00 

10    0
S    1    1.000000
   6.29348000E+03    1.96979000E-03 
S    1    1.000000
   9.49044000E+02    1.49613000E-02 
S    1    1.000000
   2.18776000E+02    7.35006000E-02 
S    1    1.000000
   6.36916000E+01    2.48937000E-01 
S    1    1.000000
   1.88282000E+01    6.02460000E-01 
S    1    1.000000
   2.72023000E+00    2.56202000E-01 
SP   3    1.000000
   3.06331000E+01    1.11906000E-01   3.83119000E-02 
   7.02614000E+00    9.21666000E-01   2.37403000E-01 
   2.11205000E+00   -2.56919000E-03   8.17592000E-01 
SP   1    1.000000
   6.84009000E-01    1.00000000E+00   1.00000000E+00 
SP   1    1.000000
   2.00878000E-01    1.00000000E+00   1.00000000E+00 
SP   1    1.000000
   6.39000000E-02    1.00000000E+00   1.00000000E+00 
SP   1    1.000000
   1.92469880E-02    1.00000000E+00   1.00000000E+00 
D    1    1.000000
   9.13000000E-01    1.00000000E+00 

11    0
S    1    1.000000
   4.56324000E+03    1.96665000E-03 
S    1    1.000000
   6.82024000E+02    1.52306000E-02 
S    1    1.000000
   1.54973000E+02    7.61269000E-02 
S    1    1.000000
   4.44553000E+01    2.60801000E-01 
S    1    1.000000
   1.30290000E+01    6.16462000E-01 
S    1    1.000000
   1.82773000E+00    2.21006000E-01 
SP   3    1.000000
   2.09642000E+01    1.14660000E-01   4.02487000E-02 
   4.80331000E+00    9.19999000E-01   2.37594000E-01 
   1.45933000E+00   -3.03068000E-03   8.15854000E-01 
SP   1    1.000000
   4.83456000E-01    1.00000000E+00   1.00000000E+00 
SP   1    1.000000
   1.45585000E-01    1.00000000E+00   1.00000000E+00 
SP   1    1.000000
   4.38000000E-02    1.00000000E+00   1.00000000E+00 
SP   1    1.000000
   1.31927711E-02    1.00000000E+00   1.00000000E+00 
D    1    1.000000
   6.26000000E-01    1.00000000E+00 

12    0
S    3    1.000000
   3.38650000E+01    2.54938000E-02 
   5.09479000E+00    1.90373000E-01 
   1.15879000E+00    8.52161000E-01 
S    1    1.000000
   3.25840000E-01    1.00000000E+00 
S    1    1.000000
   1.02741000E-01    1.00000000E+00 
S    1    1.000000
   3.60000000E-02    1.00000000E+00 
P    1    1.000000
   7.50000000E-01    1.00000000E+00 

[MO]
Sym=X
Ene=0.000231
Spin=Alpha
Occup=1
1    0.000325459652
2    0.00251957559
3    0.0125688152
4    0.0431524613
5    0.10194293
6    0.0372109751
7    0.136510575
8    -0.00033061137
9    8.77162646e-05
10    -9.10866943e-16
11    0.000323432825
12    7.93303053e-05
13    -0.00014753215
14    3.53106063e-15
15    0.000543562197
16    7.84980477e-05
17    0.000213093121
18    -6.21679929e-15
19    0.00356501087
20    4.43695399e-05
21    0.00147395915
22    4.67625208e-14
23    0.000107667145
24    -0.000148646961
25    0.000249980319
26    6.31313881e-14
27    -3.20910814e-05
28    -6.25624202e-16
29    -5.9013697e-05
30    1.01219816e-15
31    -2.23754201e-05
32    1.21842128e-05
33    4.23697347e-05
34    -0.000174684381
35    -0.000312862962
36    2.59239478e-05
37    1.84247648e-05
38    -8.63394217e-16
39    0.000111441646
40    5.11029361e-05
41    0.000166738103
42    0.000548149181
43    -1.565303e-05
44    6.61775078e-05
45    -3.05353689e-16
46    -1.44804203e-05
47    -4.72720985e-05
48    -8.8711524e-05
49    0.000203511854
50    8.25107887e-06
51    1.67190449e-05
52    1.13376678e-16
53    0.000468228417
54    0.0036247584
55    0.0180826292
56    0.0620806309
57    0.146673901
58    0.0533707253
59    0.196415707
60    0.00028559851
61    -0.00018284177
62    -7.38336829e-16
63    0.000643787254
64    -0.000350367354
65    0.000180174289
66    -5.5845862e-15
67    0.000814622977
68    0.000460043547
69    -0.000208650608
70    1.92012548e-15
71    -0.000476203388
72    -0.000249789329
73    0.00060275745
74    2.44160032e-14
75    0.000223110532
76    0.00021173572
77    8.75274339e-05
78    7.60405096e-15
79    -0.000127691216
80    -2.39445776e-16
81    -0.000104403791
82    2.39615276e-16
83    1.73016379e-05
84    -1.29510229e-09
85    2.55253346e-08
86    -2.0878161e-07
87    3.35778224e-07
88    -7.27513046e-06
89    -4.80731943e-05
90    -1.57900301e-05
91    8.97626122e-05
92    -5.45872108e-05
93    -8.60488373e-16
94    0.000237693225
95    0.000214438005
96    -0.000140640873
97    -2.11404251e-15
98    -3.14616608e-05
99    -6.93517644e-05
100    2.50289802e-05
101    -7.49340612e-16
102    0.00050464037
103    0.000294648281
104    -9.15388442e-05
105    -8.25384846e-15
106    -0.000573183595
107    -0.000193085635
108    -0.0001345171
109    1.71472819e-14
110    -0.000105867371
111    -3.49037138e-16
112    -5.02761585e-05
113    -2.21816243e-16
114    4.72872011e-05
115    -0.000929572421
116    -0.00719625678
117    -0.0358991899
118    -0.123247833
119    -0.291178889
120    -0.1059395
121    -0.389957188
122    0.000630724647
123    -0.000391072507
124    1.21678998e-15
125    -0.00141732556
126    -0.000699010589
127    0.000288731835
128    1.26423672e-15
129    -0.0010810046
130    0.000254970904
131    -0.000495379191
132    1.77267798e-15
133    0.00367428354
134    -0.00038135925
135    -0.00250870731
136    6.63168655e-14
137    0.000534187303
138    0.000262938288
139    -0.00011181787
140    9.74656037e-15
141    -0.000284915336
142    -3.06231097e-16
143    0.00022655547
144    5.32021611e-16
145    0.000107470361
146    7.729882e-07
147    5.79179815e-06
148    2.91919961e-05
149    9.67998199e-05
150    0.00026086105
151    0.000233285098
152    0.000366356366
153    0.000170659679
154    0.000111381575
155    4.69635159e-16
156    -0.000536924192
157    0.000465178573
158    0.000312934085
159    1.12244039e-15
160    0.000232639794
161    -0.000188347362
162    -7.42695046e-05
163    6.053118e-15
164    0.000158829564
165    0.000128022942
166    0.000191747981
167    -1.1105511e-14
168    0.00216491803
169    -0.00054617289
170    -3.99464899e-05
171    6.58160773e-15
172    -0.000220147179
173    -2.48576001e-16
174    9.61111245e-05
175    -2.55416366e-16
176    -9.06629704e-05
177    6.99276095e-07
178    5.22995687e-06
179    2.63457882e-05
180    8.68388399e-05
181    0.000234608998
182    0.000199801579
183    0.000256331197
184    -6.43145195e-05
185    1.35565065e-05
186    8.38281963e-16
187    -0.000233021103
188    -0.000863770704
189    0.000150265096
190    -4.38179262e-15
191    -0.000119530763
192    0.000237944469
193    0.000171369305
194    9.40221156e-15
195    0.000796039929
196    0.00115002387
197    2.09710094e-05
198    -3.67819067e-14
199    -0.000270959878
200    -0.000783448605
201    -6.72563704e-05
202    -1.69462891e-14
203    0.000329695654
204    7.35763829e-17
205    6.21223744e-05
206    4.46729289e-16
207    -9.46726138e-05
208    -7.5418012e-07
209    -5.67402885e-06
210    -2.83763131e-05
211    -9.44970827e-05
212    -0.000247565927
213    -0.000209489542
214    -0.000308394749
215    3.35689719e-05
216    2.21353457e-05
217    1.12224757e-17
218    0.000357204468
219    0.000159793382
220    0.000167137848
221    -3.45175069e-15
222    -0.000102769145
223    1.41347277e-05
224    -0.000112210402
225    3.14803255e-15
226    -0.000849161856
227    -0.00055085215
228    -0.00010469073
229    -1.80191563e-14
230    -0.000854050727
231    -0.000143369259
232    -0.000192219993
233    -5.58455073e-14
234    -9.50753358e-05
235    -7.4139426e-16
236    -7.5534383e-05
237    3.09437332e-16
238    -8.44405714e-05
239    -0.000204212777
240    -0.00158096086
241    -0.00788627829
242    -0.0270772578
243    -0.0639588772
244    -0.0233513756
245    -0.0856179709
246    -6.0116346e-06
247    -0.000140002142
248    1.22150134e-15
249    -0.000498990648
250    -0.000153498265
251    -0.000406147998
252    1.58518132e-15
253    -0.000354650566
254    0.000228108981
255    6.4340537e-05
256    7.50545999e-15
257    -0.0078292869
258    0.000780082119
259    -0.00180711364
260    -4.83438796e-14
261    -0.000667972174
262    -0.000117428359
263    -0.000395751612
264    -3.53457178e-14
265    1.65879485e-05
266    3.61937905e-17
267    5.16180791e-05
268    8.15543242e-17
269    0.000267003565
270    -8.04532782e-05
271    -0.000129992196
272    -2.75439195e-06
273    -0.000439077428
274    4.8385599e-05
275    -8.97056723e-05
276    8.11930917e-16
[5D]