[Molden Format]
[Atoms] (Angs)
  C      1    6     -0.00714236     -1.70213747     -0.00000000
  H      2    1     -2.06882847     -1.44022412      0.00000000
  H      3    1     -0.12337987     -2.77567521      0.00000000
  H      4    1      0.04651892      1.98813947     -0.00000000
  C      5    6     -1.21953563      0.40211669      0.00000000
  O      6    8     -2.25921553      1.03043814      0.00000000
  C      7    6      1.28797806      0.34644937     -0.00000000
  O      8    8      2.31273661      1.00537216     -0.00000000
  N      9    7      0.03446295      0.97739857     -0.00000000
  N     10    7     -1.17287765     -0.98229824      0.00000000
  C     11    6      1.20107039     -1.10433419     -0.00000000
  H     12    1      2.11220096     -1.67699125     -0.00000000
[GTO]
1    0
S    1    1.000000
   4.56324000E+03    1.96665000E-03 
S    1    1.000000
   6.82024000E+02    1.52306000E-02 
S    1    1.000000
   1.54973000E+02    7.61269000E-02 
S    1    1.000000
   4.44553000E+01    2.60801000E-01 
S    1    1.000000
   1.30290000E+01    6.16462000E-01 
S    1    1.000000
   1.82773000E+00    2.21006000E-01 
SP   3    1.000000
   2.09642000E+01    1.14660000E-01   4.02487000E-02 
   4.80331000E+00    9.19999000E-01   2.37594000E-01 
   1.45933000E+00   -3.03068000E-03   8.15854000E-01 
SP   1    1.000000
   4.83456000E-01    1.00000000E+00   1.00000000E+00 
SP   1    1.000000
   1.45585000E-01    1.00000000E+00   1.00000000E+00 
SP   1    1.000000
   4.38000000E-02    1.00000000E+00   1.00000000E+00 
SP   1    1.000000
   1.31927711E-02    1.00000000E+00   1.00000000E+00 
D    1    1.000000
   6.26000000E-01    1.00000000E+00 

2    0
S    3    1.000000
   3.38650000E+01    2.54938000E-02 
   5.09479000E+00    1.90373000E-01 
   1.15879000E+00    8.52161000E-01 
S    1    1.000000
   3.25840000E-01    1.00000000E+00 
S    1    1.000000
   1.02741000E-01    1.00000000E+00 
S    1    1.000000
   3.60000000E-02    1.00000000E+00 
P    1    1.000000
   7.50000000E-01    1.00000000E+00 

3    0
S    3    1.000000
   3.38650000E+01    2.54938000E-02 
   5.09479000E+00    1.90373000E-01 
   1.15879000E+00    8.52161000E-01 
S    1    1.000000
   3.25840000E-01    1.00000000E+00 
S    1    1.000000
   1.02741000E-01    1.00000000E+00 
S    1    1.000000
   3.60000000E-02    1.00000000E+00 
P    1    1.000000
   7.50000000E-01    1.00000000E+00 

4    0
S    3    1.000000
   3.38650000E+01    2.54938000E-02 
   5.09479000E+00    1.90373000E-01 
   1.15879000E+00    8.52161000E-01 
S    1    1.000000
   3.25840000E-01    1.00000000E+00 
S    1    1.000000
   1.02741000E-01    1.00000000E+00 
S    1    1.000000
   3.60000000E-02    1.00000000E+00 
P    1    1.000000
   7.50000000E-01    1.00000000E+00 

5    0
S    1    1.000000
   4.56324000E+03    1.96665000E-03 
S    1    1.000000
   6.82024000E+02    1.52306000E-02 
S    1    1.000000
   1.54973000E+02    7.61269000E-02 
S    1    1.000000
   4.44553000E+01    2.60801000E-01 
S    1    1.000000
   1.30290000E+01    6.16462000E-01 
S    1    1.000000
   1.82773000E+00    2.21006000E-01 
SP   3    1.000000
   2.09642000E+01    1.14660000E-01   4.02487000E-02 
   4.80331000E+00    9.19999000E-01   2.37594000E-01 
   1.45933000E+00   -3.03068000E-03   8.15854000E-01 
SP   1    1.000000
   4.83456000E-01    1.00000000E+00   1.00000000E+00 
SP   1    1.000000
   1.45585000E-01    1.00000000E+00   1.00000000E+00 
SP   1    1.000000
   4.38000000E-02    1.00000000E+00   1.00000000E+00 
SP   1    1.000000
   1.31927711E-02    1.00000000E+00   1.00000000E+00 
D    1    1.000000
   6.26000000E-01    1.00000000E+00 

6    0
S    1    1.000000
   8.58850000E+03    1.89515000E-03 
S    1    1.000000
   1.29723000E+03    1.43859000E-02 
S    1    1.000000
   2.99296000E+02    7.07320000E-02 
S    1    1.000000
   8.73771000E+01    2.40001000E-01 
S    1    1.000000
   2.56789000E+01    5.94797000E-01 
S    1    1.000000
   3.74004000E+00    2.80802000E-01 
SP   3    1.000000
   4.21175000E+01    1.13889000E-01   3.65114000E-02 
   9.62837000E+00    9.20811000E-01   2.37153000E-01 
   2.85332000E+00   -3.27447000E-03   8.19702000E-01 
SP   1    1.000000
   9.05661000E-01    1.00000000E+00   1.00000000E+00 
SP   1    1.000000
   2.55611000E-01    1.00000000E+00   1.00000000E+00 
SP   1    1.000000
   8.45000000E-02    1.00000000E+00   1.00000000E+00 
SP   1    1.000000
   2.54518072E-02    1.00000000E+00   1.00000000E+00 
D    1    1.000000
   1.29200000E+00    1.00000000E+00 

7    0
S    1    1.000000
   4.56324000E+03    1.96665000E-03 
S    1    1.000000
   6.82024000E+02    1.52306000E-02 
S    1    1.000000
   1.54973000E+02    7.61269000E-02 
S    1    1.000000
   4.44553000E+01    2.60801000E-01 
S    1    1.000000
   1.30290000E+01    6.16462000E-01 
S    1    1.000000
   1.82773000E+00    2.21006000E-01 
SP   3    1.000000
   2.09642000E+01    1.14660000E-01   4.02487000E-02 
   4.80331000E+00    9.19999000E-01   2.37594000E-01 
   1.45933000E+00   -3.03068000E-03   8.15854000E-01 
SP   1    1.000000
   4.83456000E-01    1.00000000E+00   1.00000000E+00 
SP   1    1.000000
   1.45585000E-01    1.00000000E+00   1.00000000E+00 
SP   1    1.000000
   4.38000000E-02    1.00000000E+00   1.00000000E+00 
SP   1    1.000000
   1.31927711E-02    1.00000000E+00   1.00000000E+00 
D    1    1.000000
   6.26000000E-01    1.00000000E+00 

8    0
S    1    1.000000
   8.58850000E+03    1.89515000E-03 
S    1    1.000000
   1.29723000E+03    1.43859000E-02 
S    1    1.000000
   2.99296000E+02    7.07320000E-02 
S    1    1.000000
   8.73771000E+01    2.40001000E-01 
S    1    1.000000
   2.56789000E+01    5.94797000E-01 
S    1    1.000000
   3.74004000E+00    2.80802000E-01 
SP   3    1.000000
   4.21175000E+01    1.13889000E-01   3.65114000E-02 
   9.62837000E+00    9.20811000E-01   2.37153000E-01 
   2.85332000E+00   -3.27447000E-03   8.19702000E-01 
SP   1    1.000000
   9.05661000E-01    1.00000000E+00   1.00000000E+00 
SP   1    1.000000
   2.55611000E-01    1.00000000E+00   1.00000000E+00 
SP   1    1.000000
   8.45000000E-02    1.00000000E+00   1.00000000E+00 
SP   1    1.000000
   2.54518072E-02    1.00000000E+00   1.00000000E+00 
D    1    1.000000
   1.29200000E+00    1.00000000E+00 

9    0
S    1    1.000000
   6.29348000E+03    1.96979000E-03 
S    1    1.000000
   9.49044000E+02    1.49613000E-02 
S    1    1.000000
   2.18776000E+02    7.35006000E-02 
S    1    1.000000
   6.36916000E+01    2.48937000E-01 
S    1    1.000000
   1.88282000E+01    6.02460000E-01 
S    1    1.000000
   2.72023000E+00    2.56202000E-01 
SP   3    1.000000
   3.06331000E+01    1.11906000E-01   3.83119000E-02 
   7.02614000E+00    9.21666000E-01   2.37403000E-01 
   2.11205000E+00   -2.56919000E-03   8.17592000E-01 
SP   1    1.000000
   6.84009000E-01    1.00000000E+00   1.00000000E+00 
SP   1    1.000000
   2.00878000E-01    1.00000000E+00   1.00000000E+00 
SP   1    1.000000
   6.39000000E-02    1.00000000E+00   1.00000000E+00 
SP   1    1.000000
   1.92469880E-02    1.00000000E+00   1.00000000E+00 
D    1    1.000000
   9.13000000E-01    1.00000000E+00 

10    0
S    1    1.000000
   6.29348000E+03    1.96979000E-03 
S    1    1.000000
   9.49044000E+02    1.49613000E-02 
S    1    1.000000
   2.18776000E+02    7.35006000E-02 
S    1    1.000000
   6.36916000E+01    2.48937000E-01 
S    1    1.000000
   1.88282000E+01    6.02460000E-01 
S    1    1.000000
   2.72023000E+00    2.56202000E-01 
SP   3    1.000000
   3.06331000E+01    1.11906000E-01   3.83119000E-02 
   7.02614000E+00    9.21666000E-01   2.37403000E-01 
   2.11205000E+00   -2.56919000E-03   8.17592000E-01 
SP   1    1.000000
   6.84009000E-01    1.00000000E+00   1.00000000E+00 
SP   1    1.000000
   2.00878000E-01    1.00000000E+00   1.00000000E+00 
SP   1    1.000000
   6.39000000E-02    1.00000000E+00   1.00000000E+00 
SP   1    1.000000
   1.92469880E-02    1.00000000E+00   1.00000000E+00 
D    1    1.000000
   9.13000000E-01    1.00000000E+00 

11    0
S    1    1.000000
   4.56324000E+03    1.96665000E-03 
S    1    1.000000
   6.82024000E+02    1.52306000E-02 
S    1    1.000000
   1.54973000E+02    7.61269000E-02 
S    1    1.000000
   4.44553000E+01    2.60801000E-01 
S    1    1.000000
   1.30290000E+01    6.16462000E-01 
S    1    1.000000
   1.82773000E+00    2.21006000E-01 
SP   3    1.000000
   2.09642000E+01    1.14660000E-01   4.02487000E-02 
   4.80331000E+00    9.19999000E-01   2.37594000E-01 
   1.45933000E+00   -3.03068000E-03   8.15854000E-01 
SP   1    1.000000
   4.83456000E-01    1.00000000E+00   1.00000000E+00 
SP   1    1.000000
   1.45585000E-01    1.00000000E+00   1.00000000E+00 
SP   1    1.000000
   4.38000000E-02    1.00000000E+00   1.00000000E+00 
SP   1    1.000000
   1.31927711E-02    1.00000000E+00   1.00000000E+00 
D    1    1.000000
   6.26000000E-01    1.00000000E+00 

12    0
S    3    1.000000
   3.38650000E+01    2.54938000E-02 
   5.09479000E+00    1.90373000E-01 
   1.15879000E+00    8.52161000E-01 
S    1    1.000000
   3.25840000E-01    1.00000000E+00 
S    1    1.000000
   1.02741000E-01    1.00000000E+00 
S    1    1.000000
   3.60000000E-02    1.00000000E+00 
P    1    1.000000
   7.50000000E-01    1.00000000E+00 

[MO]
Sym=X
Ene=0.004122
Spin=Alpha
Occup=1
1    -5.96948813e-05
2    -0.000462152606
3    -0.00230531075
4    -0.00791533596
5    -0.0186934362
6    -0.00680406507
7    -0.025059732
8    5.96661419e-05
9    -1.28679046e-06
10    -4.63477201e-16
11    -7.24867885e-05
12    9.54196891e-05
13    2.1597281e-05
14    -3.19122823e-15
15    0.000116186189
16    -0.000111592455
17    3.01532227e-05
18    -7.8947272e-16
19    -0.00367946272
20    -0.00046732449
21    -0.00150262001
22    -1.94091778e-14
23    -0.000324113911
24    0.000213218982
25    -0.000122782259
26    -6.7843842e-14
27    7.60741136e-05
28    -1.68487991e-16
29    -5.89264324e-06
30    -1.40151018e-15
31    2.14153271e-05
32    -3.22786647e-05
33    -1.08909446e-05
34    -9.64791886e-07
35    -3.94830151e-05
36    -3.84276344e-05
37    -2.33174805e-05
38    8.62090134e-16
39    -2.84393823e-05
40    -1.55006112e-05
41    -4.18813944e-05
42    -0.000947610603
43    1.40822764e-05
44    -1.745838e-05
45    -4.15577487e-17
46    -2.69283256e-05
47    -3.49641867e-05
48    0.000104083643
49    4.76455371e-05
50    5.55836711e-06
51    4.34084273e-05
52    3.16774983e-17
53    -0.00109709333
54    -0.00849311617
55    -0.0423688271
56    -0.145460318
57    -0.343658102
58    -0.125000362
59    -0.460246376
60    -0.000637843489
61    0.000443647336
62    2.6852376e-15
63    -0.00160115943
64    0.000732075129
65    -0.000474522801
66    8.59002875e-15
67    -0.00150005758
68    -0.000429098629
69    0.000230598218
70    -1.05887407e-15
71    0.000425358708
72    0.000691557398
73    -0.000527583925
74    2.14492484e-14
75    0.000672935872
76    -1.21090915e-05
77    -0.000104805444
78    2.80856096e-14
79    0.000276571719
80    1.10472575e-15
81    0.000240339185
82    -1.88462547e-15
83    -0.000150827771
84    1.95481547e-07
85    1.3934495e-06
86    7.69298482e-06
87    2.34378655e-05
88    7.97768095e-05
89    0.000151501615
90    0.000117878226
91    -0.000209841533
92    0.000127017059
93    3.11938879e-15
94    -0.00058788813
95    -0.000527432511
96    0.000317723622
97    5.1622776e-15
98    0.000245700744
99    0.000233900069
100    -0.0001331448
101    8.42548867e-15
102    -0.000213822074
103    -0.000305660587
104    0.000158454877
105    4.84315076e-15
106    0.000926301092
107    0.000167515993
108    -8.29948754e-05
109    -2.6589415e-14
110    0.000237279403
111    -6.86021872e-16
112    0.000115272538
113    5.71376129e-16
114    -0.000124248393
115    8.03390207e-05
116    0.000621926025
117    0.00310263692
118    0.0106514076
119    0.025168622
120    0.00916871489
121    0.033686474
122    -7.22955694e-05
123    2.73874098e-05
124    -3.11112118e-15
125    0.000134450404
126    0.000107027029
127    -9.61236214e-05
128    -6.4603226e-15
129    -3.10102427e-05
130    -0.000333160947
131    1.68538667e-05
132    -5.56718782e-15
133    -0.00368560931
134    0.000520096131
135    0.00112942625
136    -5.14494565e-14
137    -0.000639511749
138    8.93665365e-05
139    0.000131008257
140    -2.68994464e-14
141    3.88456956e-05
142    5.34592946e-16
143    -3.11877816e-05
144    -7.91936358e-16
145    -8.11649279e-05
146    -1.66575923e-07
147    -1.26865206e-06
148    -6.22215085e-06
149    -2.12058331e-05
150    -5.19790386e-05
151    -2.64693125e-05
152    -8.15691015e-05
153    -1.51925985e-05
154    -7.98157196e-06
155    -2.07803177e-15
156    2.05554617e-05
157    -2.38738714e-05
158    -2.93503506e-05
159    -2.96539492e-15
160    8.5434348e-05
161    -3.0983853e-05
162    -4.44720753e-05
163    -9.23344406e-15
164    0.000514665133
165    -0.000207040537
166    -0.000116752415
167    3.15198509e-16
168    -0.000307768746
169    5.44433271e-05
170    -9.18580147e-05
171    3.55227973e-15
172    2.45328434e-05
173    4.80038477e-16
174    -8.93325833e-06
175    5.15762155e-16
176    2.67455017e-07
177    5.51253286e-07
178    4.08117335e-06
179    2.09356815e-05
180    6.79267076e-05
181    0.000195634814
182    0.000236179782
183    0.00020105722
184    7.30695757e-05
185    4.19032333e-05
186    -5.99602861e-16
187    -0.000497152525
188    0.000680394282
189    0.000262768364
190    1.33324155e-15
191    0.000112433898
192    -0.000221962665
193    -2.28910269e-05
194    -4.29071158e-15
195    0.000356459932
196    -0.000589051671
197    -0.000267945815
198    1.19944779e-14
199    6.62046133e-05
200    0.000232738787
201    -3.62397393e-05
202    -1.57926848e-14
203    -0.000250256033
204    -7.89026167e-17
205    8.81641496e-05
206    -1.39685321e-15
207    -0.000187799199
208    6.77594868e-07
209    5.02065607e-06
210    2.57134322e-05
211    8.35301077e-05
212    0.000239317625
213    0.000280131062
214    0.000245848883
215    -1.43434372e-05
216    -7.7205252e-05
217    1.54981534e-15
218    -0.000564874035
219    7.66959908e-06
220    -0.000676616215
221    9.66142338e-16
222    0.000109796139
223    -4.23254068e-05
224    0.00018823546
225    7.45060029e-15
226    0.00063152404
227    1.0280848e-05
228    0.00024923361
229    -7.80901575e-15
230    6.49667728e-05
231    0.000160868063
232    -0.000249777277
233    3.06307692e-14
234    4.06828865e-05
235    9.18861633e-16
236    0.000105409504
237    -6.44092789e-16
238    0.000307994315
239    0.000132278106
240    0.00102404135
241    0.00510837781
242    0.0175389507
243    0.0414360284
244    0.0151775413
245    0.055447777
246    -2.20846004e-05
247    4.0893493e-05
248    -3.35888211e-15
249    0.000156122524
250    8.07555151e-05
251    5.23378812e-06
252    -5.29830627e-15
253    0.00012503361
254    -7.9680446e-06
255    9.77917675e-06
256    -1.15056661e-14
257    0.00624365762
258    -0.0010284193
259    0.000814957498
260    1.94417051e-14
261    0.000166085853
262    -4.91018079e-05
263    9.71951271e-05
264    3.96279076e-14
265    -2.24173091e-05
266    -5.91855508e-16
267    -1.73959638e-05
268    -1.98564221e-16
269    -2.09291208e-05
270    4.06192404e-05
271    7.30376544e-06
272    3.00998144e-05
273    0.00019632447
274    -1.61431219e-05
275    1.70821072e-05
276    -1.95581734e-15
[5D]