[Molden Format]
[Atoms] (Angs)
  C      1    6     -0.00714236     -1.70213747     -0.00000000
  H      2    1     -2.06882847     -1.44022412      0.00000000
  H      3    1     -0.12337987     -2.77567521      0.00000000
  H      4    1      0.04651892      1.98813947     -0.00000000
  C      5    6     -1.21953563      0.40211669      0.00000000
  O      6    8     -2.25921553      1.03043814      0.00000000
  C      7    6      1.28797806      0.34644937     -0.00000000
  O      8    8      2.31273661      1.00537216     -0.00000000
  N      9    7      0.03446295      0.97739857     -0.00000000
  N     10    7     -1.17287765     -0.98229824      0.00000000
  C     11    6      1.20107039     -1.10433419     -0.00000000
  H     12    1      2.11220096     -1.67699125     -0.00000000
[GTO]
1    0
S    1    1.000000
   4.56324000E+03    1.96665000E-03 
S    1    1.000000
   6.82024000E+02    1.52306000E-02 
S    1    1.000000
   1.54973000E+02    7.61269000E-02 
S    1    1.000000
   4.44553000E+01    2.60801000E-01 
S    1    1.000000
   1.30290000E+01    6.16462000E-01 
S    1    1.000000
   1.82773000E+00    2.21006000E-01 
SP   3    1.000000
   2.09642000E+01    1.14660000E-01   4.02487000E-02 
   4.80331000E+00    9.19999000E-01   2.37594000E-01 
   1.45933000E+00   -3.03068000E-03   8.15854000E-01 
SP   1    1.000000
   4.83456000E-01    1.00000000E+00   1.00000000E+00 
SP   1    1.000000
   1.45585000E-01    1.00000000E+00   1.00000000E+00 
SP   1    1.000000
   4.38000000E-02    1.00000000E+00   1.00000000E+00 
SP   1    1.000000
   1.31927711E-02    1.00000000E+00   1.00000000E+00 
D    1    1.000000
   6.26000000E-01    1.00000000E+00 

2    0
S    3    1.000000
   3.38650000E+01    2.54938000E-02 
   5.09479000E+00    1.90373000E-01 
   1.15879000E+00    8.52161000E-01 
S    1    1.000000
   3.25840000E-01    1.00000000E+00 
S    1    1.000000
   1.02741000E-01    1.00000000E+00 
S    1    1.000000
   3.60000000E-02    1.00000000E+00 
P    1    1.000000
   7.50000000E-01    1.00000000E+00 

3    0
S    3    1.000000
   3.38650000E+01    2.54938000E-02 
   5.09479000E+00    1.90373000E-01 
   1.15879000E+00    8.52161000E-01 
S    1    1.000000
   3.25840000E-01    1.00000000E+00 
S    1    1.000000
   1.02741000E-01    1.00000000E+00 
S    1    1.000000
   3.60000000E-02    1.00000000E+00 
P    1    1.000000
   7.50000000E-01    1.00000000E+00 

4    0
S    3    1.000000
   3.38650000E+01    2.54938000E-02 
   5.09479000E+00    1.90373000E-01 
   1.15879000E+00    8.52161000E-01 
S    1    1.000000
   3.25840000E-01    1.00000000E+00 
S    1    1.000000
   1.02741000E-01    1.00000000E+00 
S    1    1.000000
   3.60000000E-02    1.00000000E+00 
P    1    1.000000
   7.50000000E-01    1.00000000E+00 

5    0
S    1    1.000000
   4.56324000E+03    1.96665000E-03 
S    1    1.000000
   6.82024000E+02    1.52306000E-02 
S    1    1.000000
   1.54973000E+02    7.61269000E-02 
S    1    1.000000
   4.44553000E+01    2.60801000E-01 
S    1    1.000000
   1.30290000E+01    6.16462000E-01 
S    1    1.000000
   1.82773000E+00    2.21006000E-01 
SP   3    1.000000
   2.09642000E+01    1.14660000E-01   4.02487000E-02 
   4.80331000E+00    9.19999000E-01   2.37594000E-01 
   1.45933000E+00   -3.03068000E-03   8.15854000E-01 
SP   1    1.000000
   4.83456000E-01    1.00000000E+00   1.00000000E+00 
SP   1    1.000000
   1.45585000E-01    1.00000000E+00   1.00000000E+00 
SP   1    1.000000
   4.38000000E-02    1.00000000E+00   1.00000000E+00 
SP   1    1.000000
   1.31927711E-02    1.00000000E+00   1.00000000E+00 
D    1    1.000000
   6.26000000E-01    1.00000000E+00 

6    0
S    1    1.000000
   8.58850000E+03    1.89515000E-03 
S    1    1.000000
   1.29723000E+03    1.43859000E-02 
S    1    1.000000
   2.99296000E+02    7.07320000E-02 
S    1    1.000000
   8.73771000E+01    2.40001000E-01 
S    1    1.000000
   2.56789000E+01    5.94797000E-01 
S    1    1.000000
   3.74004000E+00    2.80802000E-01 
SP   3    1.000000
   4.21175000E+01    1.13889000E-01   3.65114000E-02 
   9.62837000E+00    9.20811000E-01   2.37153000E-01 
   2.85332000E+00   -3.27447000E-03   8.19702000E-01 
SP   1    1.000000
   9.05661000E-01    1.00000000E+00   1.00000000E+00 
SP   1    1.000000
   2.55611000E-01    1.00000000E+00   1.00000000E+00 
SP   1    1.000000
   8.45000000E-02    1.00000000E+00   1.00000000E+00 
SP   1    1.000000
   2.54518072E-02    1.00000000E+00   1.00000000E+00 
D    1    1.000000
   1.29200000E+00    1.00000000E+00 

7    0
S    1    1.000000
   4.56324000E+03    1.96665000E-03 
S    1    1.000000
   6.82024000E+02    1.52306000E-02 
S    1    1.000000
   1.54973000E+02    7.61269000E-02 
S    1    1.000000
   4.44553000E+01    2.60801000E-01 
S    1    1.000000
   1.30290000E+01    6.16462000E-01 
S    1    1.000000
   1.82773000E+00    2.21006000E-01 
SP   3    1.000000
   2.09642000E+01    1.14660000E-01   4.02487000E-02 
   4.80331000E+00    9.19999000E-01   2.37594000E-01 
   1.45933000E+00   -3.03068000E-03   8.15854000E-01 
SP   1    1.000000
   4.83456000E-01    1.00000000E+00   1.00000000E+00 
SP   1    1.000000
   1.45585000E-01    1.00000000E+00   1.00000000E+00 
SP   1    1.000000
   4.38000000E-02    1.00000000E+00   1.00000000E+00 
SP   1    1.000000
   1.31927711E-02    1.00000000E+00   1.00000000E+00 
D    1    1.000000
   6.26000000E-01    1.00000000E+00 

8    0
S    1    1.000000
   8.58850000E+03    1.89515000E-03 
S    1    1.000000
   1.29723000E+03    1.43859000E-02 
S    1    1.000000
   2.99296000E+02    7.07320000E-02 
S    1    1.000000
   8.73771000E+01    2.40001000E-01 
S    1    1.000000
   2.56789000E+01    5.94797000E-01 
S    1    1.000000
   3.74004000E+00    2.80802000E-01 
SP   3    1.000000
   4.21175000E+01    1.13889000E-01   3.65114000E-02 
   9.62837000E+00    9.20811000E-01   2.37153000E-01 
   2.85332000E+00   -3.27447000E-03   8.19702000E-01 
SP   1    1.000000
   9.05661000E-01    1.00000000E+00   1.00000000E+00 
SP   1    1.000000
   2.55611000E-01    1.00000000E+00   1.00000000E+00 
SP   1    1.000000
   8.45000000E-02    1.00000000E+00   1.00000000E+00 
SP   1    1.000000
   2.54518072E-02    1.00000000E+00   1.00000000E+00 
D    1    1.000000
   1.29200000E+00    1.00000000E+00 

9    0
S    1    1.000000
   6.29348000E+03    1.96979000E-03 
S    1    1.000000
   9.49044000E+02    1.49613000E-02 
S    1    1.000000
   2.18776000E+02    7.35006000E-02 
S    1    1.000000
   6.36916000E+01    2.48937000E-01 
S    1    1.000000
   1.88282000E+01    6.02460000E-01 
S    1    1.000000
   2.72023000E+00    2.56202000E-01 
SP   3    1.000000
   3.06331000E+01    1.11906000E-01   3.83119000E-02 
   7.02614000E+00    9.21666000E-01   2.37403000E-01 
   2.11205000E+00   -2.56919000E-03   8.17592000E-01 
SP   1    1.000000
   6.84009000E-01    1.00000000E+00   1.00000000E+00 
SP   1    1.000000
   2.00878000E-01    1.00000000E+00   1.00000000E+00 
SP   1    1.000000
   6.39000000E-02    1.00000000E+00   1.00000000E+00 
SP   1    1.000000
   1.92469880E-02    1.00000000E+00   1.00000000E+00 
D    1    1.000000
   9.13000000E-01    1.00000000E+00 

10    0
S    1    1.000000
   6.29348000E+03    1.96979000E-03 
S    1    1.000000
   9.49044000E+02    1.49613000E-02 
S    1    1.000000
   2.18776000E+02    7.35006000E-02 
S    1    1.000000
   6.36916000E+01    2.48937000E-01 
S    1    1.000000
   1.88282000E+01    6.02460000E-01 
S    1    1.000000
   2.72023000E+00    2.56202000E-01 
SP   3    1.000000
   3.06331000E+01    1.11906000E-01   3.83119000E-02 
   7.02614000E+00    9.21666000E-01   2.37403000E-01 
   2.11205000E+00   -2.56919000E-03   8.17592000E-01 
SP   1    1.000000
   6.84009000E-01    1.00000000E+00   1.00000000E+00 
SP   1    1.000000
   2.00878000E-01    1.00000000E+00   1.00000000E+00 
SP   1    1.000000
   6.39000000E-02    1.00000000E+00   1.00000000E+00 
SP   1    1.000000
   1.92469880E-02    1.00000000E+00   1.00000000E+00 
D    1    1.000000
   9.13000000E-01    1.00000000E+00 

11    0
S    1    1.000000
   4.56324000E+03    1.96665000E-03 
S    1    1.000000
   6.82024000E+02    1.52306000E-02 
S    1    1.000000
   1.54973000E+02    7.61269000E-02 
S    1    1.000000
   4.44553000E+01    2.60801000E-01 
S    1    1.000000
   1.30290000E+01    6.16462000E-01 
S    1    1.000000
   1.82773000E+00    2.21006000E-01 
SP   3    1.000000
   2.09642000E+01    1.14660000E-01   4.02487000E-02 
   4.80331000E+00    9.19999000E-01   2.37594000E-01 
   1.45933000E+00   -3.03068000E-03   8.15854000E-01 
SP   1    1.000000
   4.83456000E-01    1.00000000E+00   1.00000000E+00 
SP   1    1.000000
   1.45585000E-01    1.00000000E+00   1.00000000E+00 
SP   1    1.000000
   4.38000000E-02    1.00000000E+00   1.00000000E+00 
SP   1    1.000000
   1.31927711E-02    1.00000000E+00   1.00000000E+00 
D    1    1.000000
   6.26000000E-01    1.00000000E+00 

12    0
S    3    1.000000
   3.38650000E+01    2.54938000E-02 
   5.09479000E+00    1.90373000E-01 
   1.15879000E+00    8.52161000E-01 
S    1    1.000000
   3.25840000E-01    1.00000000E+00 
S    1    1.000000
   1.02741000E-01    1.00000000E+00 
S    1    1.000000
   3.60000000E-02    1.00000000E+00 
P    1    1.000000
   7.50000000E-01    1.00000000E+00 

[MO]
Sym=X
Ene=0.957649
Spin=Alpha
Occup=1
1    -8.1498228e-10
2    1.97977658e-09
3    -5.08464353e-08
4    6.47300204e-08
5    -1.7203721e-06
6    -6.88571942e-06
7    3.4832147e-06
8    1.82072009e-06
9    -7.04335896e-07
10    2.78388776e-16
11    1.98443908e-05
12    -1.79762121e-05
13    6.07866513e-06
14    1.46443903e-15
15    -0.000144811741
16    -2.68451783e-05
17    -0.000149288548
18    -2.2872052e-15
19    -0.0029493613
20    1.12471697e-05
21    -0.00122286353
22    4.67744048e-14
23    -0.000325473673
24    -0.000238529615
25    0.000199207192
26    8.20953563e-15
27    -8.07598764e-06
28    -4.14522995e-16
29    2.65363771e-06
30    8.29310567e-16
31    -5.15500181e-06
32    7.12319646e-06
33    -1.36013237e-05
34    -3.60183821e-05
35    9.2329472e-05
36    3.27791755e-06
37    -8.6065423e-06
38    -7.67144324e-16
39    1.39335045e-06
40    -2.0593544e-05
41    -0.00011182733
42    -0.000758955303
43    -1.11855571e-06
44    -3.82748825e-06
45    -3.91674858e-17
46    5.86609538e-06
47    -5.24762454e-08
48    -9.5744558e-05
49    0.000120444609
50    8.29698009e-06
51    2.42215634e-07
52    3.20987514e-17
53    -9.2243183e-09
54    -1.27342077e-07
55    -2.97714126e-07
56    -3.2007327e-06
57    -8.26911899e-06
58    -0.000128639029
59    -1.19263779e-05
60    -3.18554591e-05
61    2.08737075e-05
62    -4.16636995e-17
63    0.0004627413
64    -0.000473133351
65    0.000286590118
66    -5.81383359e-15
67    -0.000906811792
68    0.000492225227
69    -0.00032029441
70    1.28210571e-16
71    -0.00216891765
72    0.0028039968
73    -0.00177118042
74    4.51113554e-14
75    0.0014715799
76    0.000121362001
77    0.000244323141
78    4.04913516e-15
79    -0.000255468399
80    -1.98333064e-16
81    -8.32603386e-05
82    3.33149185e-16
83    0.000129494726
84    0.00104387172
85    0.00794083452
86    0.0389364462
87    0.132511208
88    0.327972709
89    0.155488434
90    0.471317181
91    0.00167649129
92    -0.000963233192
93    -8.76537992e-16
94    0.00490449826
95    -0.000792918715
96    0.000454718748
97    -2.71877732e-15
98    -0.000593533038
99    0.000440585968
100    -0.000246075475
101    -3.24017541e-16
102    0.00331594059
103    0.000227968457
104    -0.00015490008
105    -1.16624179e-14
106    0.0077570351
107    0.00143880447
108    -0.000702890203
109    8.53727369e-16
110    9.18594961e-05
111    -3.60737874e-16
112    -9.00459155e-05
113    -3.21162284e-16
114    -5.38863863e-05
115    -8.99469735e-10
116    2.14894179e-09
117    -5.60619581e-08
118    7.21302359e-08
119    -1.85488842e-06
120    -7.19774182e-06
121    3.6954013e-06
122    2.23791749e-06
123    5.62331313e-07
124    3.43094499e-16
125    1.85419776e-05
126    -1.248587e-05
127    3.35131015e-06
128    5.26022908e-15
129    6.8486619e-05
130    0.000247100722
131    0.000165874666
132    -4.69023537e-15
133    -0.00197267436
134    0.00118615415
135    0.000441942718
136    7.09265559e-14
137    -0.000440575212
138    0.000189212752
139    -0.000273195945
140    4.48912775e-14
141    3.76056883e-06
142    -3.66133232e-16
143    -5.24050523e-07
144    -8.10072943e-17
145    5.77616465e-06
146    1.22484865e-09
147    1.39218002e-08
148    3.51828592e-08
149    2.45961446e-07
150    -5.18634169e-07
151    -3.69847383e-06
152    3.11142254e-06
153    1.76770571e-06
154    -1.326533e-07
155    1.10558546e-15
156    1.21818772e-05
157    -5.97993979e-06
158    -4.18475432e-07
159    4.29746567e-16
160    -9.787847e-05
161    5.94140027e-05
162    2.59003071e-05
163    6.23718733e-15
164    -0.000475520554
165    3.96815385e-05
166    7.43322132e-05
167    -4.28987711e-15
168    -0.0025035905
169    0.00040052537
170    8.26080563e-05
171    -1.30360325e-14
172    -1.72052667e-06
173    -4.99636609e-16
174    1.28238434e-06
175    -5.61809832e-16
176    -4.52895052e-07
177    -9.99343693e-10
178    2.93113772e-08
179    -1.18816461e-07
180    6.28904547e-07
181    -7.05845959e-06
182    -2.91391801e-05
183    2.01117537e-05
184    1.72358434e-05
185    -1.13530813e-06
186    2.23451512e-15
187    4.06390923e-05
188    -5.84268987e-05
189    -1.47214063e-06
190    -5.16083831e-15
191    2.29541125e-05
192    8.58120214e-06
193    -1.54338284e-05
194    1.42752317e-14
195    0.000202128826
196    -5.65939739e-05
197    0.000208375692
198    -4.22520351e-14
199    -0.0015070256
200    0.00244528425
201    -6.22347551e-05
202    -4.50986437e-14
203    4.98690004e-06
204    -2.31142112e-16
205    -4.73448528e-06
206    -1.12450254e-16
207    3.3155733e-05
208    -1.39228851e-09
209    2.88695875e-08
210    -1.39457374e-07
211    6.3131577e-07
212    -7.62296177e-06
213    -3.10436665e-05
214    2.11339814e-05
215    9.00599186e-06
216    -1.51025661e-05
217    9.24168568e-16
218    4.75766769e-05
219    -2.45705834e-05
220    5.33118923e-05
221    -5.64774535e-15
222    -2.33051744e-05
223    1.2284574e-06
224    -2.71833532e-05
225    1.03740267e-14
226    0.000168226833
227    -8.32975563e-05
228    -3.00839207e-05
229    -4.17678762e-14
230    -0.00190379251
231    0.000377250026
232    -0.000764991667
233    -1.65582619e-14
234    -2.13407019e-05
235    -2.33847969e-16
236    -4.17496302e-06
237    2.93408105e-16
238    -2.43637345e-05
239    3.72328211e-11
240    2.72256739e-10
241    1.52026628e-09
242    1.3399697e-09
243    -6.72916409e-08
244    -1.14025169e-06
245    2.95104724e-07
246    1.29834877e-06
247    -6.40872964e-08
248    1.35600788e-15
249    -5.15070011e-09
250    -1.38803449e-05
251    1.32876361e-06
252    2.33197608e-15
253    0.00024290273
254    -0.0001489391
255    8.29975906e-05
256    7.64900188e-15
257    0.00320715013
258    -0.000756686647
259    0.000436681205
260    -5.17100998e-14
261    -0.000137501169
262    -0.000118827514
263    -0.000283972643
264    -2.87759988e-14
265    6.03377386e-06
266    4.04288818e-16
267    1.38378418e-06
268    -9.95775257e-17
269    1.94030649e-07
270    6.38764106e-07
271    2.54742992e-05
272    5.7246738e-05
273    8.24293236e-05
274    -3.83016751e-06
275    2.57546746e-06
276    6.02000449e-16
[5D]