[Molden Format]
[Atoms] (Angs)
  C      1    6     -0.00714236     -1.70213747     -0.00000000
  H      2    1     -2.06882847     -1.44022412      0.00000000
  H      3    1     -0.12337987     -2.77567521      0.00000000
  H      4    1      0.04651892      1.98813947     -0.00000000
  C      5    6     -1.21953563      0.40211669      0.00000000
  O      6    8     -2.25921553      1.03043814      0.00000000
  C      7    6      1.28797806      0.34644937     -0.00000000
  O      8    8      2.31273661      1.00537216     -0.00000000
  N      9    7      0.03446295      0.97739857     -0.00000000
  N     10    7     -1.17287765     -0.98229824      0.00000000
  C     11    6      1.20107039     -1.10433419     -0.00000000
  H     12    1      2.11220096     -1.67699125     -0.00000000
[GTO]
1    0
S    1    1.000000
   4.56324000E+03    1.96665000E-03 
S    1    1.000000
   6.82024000E+02    1.52306000E-02 
S    1    1.000000
   1.54973000E+02    7.61269000E-02 
S    1    1.000000
   4.44553000E+01    2.60801000E-01 
S    1    1.000000
   1.30290000E+01    6.16462000E-01 
S    1    1.000000
   1.82773000E+00    2.21006000E-01 
SP   3    1.000000
   2.09642000E+01    1.14660000E-01   4.02487000E-02 
   4.80331000E+00    9.19999000E-01   2.37594000E-01 
   1.45933000E+00   -3.03068000E-03   8.15854000E-01 
SP   1    1.000000
   4.83456000E-01    1.00000000E+00   1.00000000E+00 
SP   1    1.000000
   1.45585000E-01    1.00000000E+00   1.00000000E+00 
SP   1    1.000000
   4.38000000E-02    1.00000000E+00   1.00000000E+00 
SP   1    1.000000
   1.31927711E-02    1.00000000E+00   1.00000000E+00 
D    1    1.000000
   6.26000000E-01    1.00000000E+00 

2    0
S    3    1.000000
   3.38650000E+01    2.54938000E-02 
   5.09479000E+00    1.90373000E-01 
   1.15879000E+00    8.52161000E-01 
S    1    1.000000
   3.25840000E-01    1.00000000E+00 
S    1    1.000000
   1.02741000E-01    1.00000000E+00 
S    1    1.000000
   3.60000000E-02    1.00000000E+00 
P    1    1.000000
   7.50000000E-01    1.00000000E+00 

3    0
S    3    1.000000
   3.38650000E+01    2.54938000E-02 
   5.09479000E+00    1.90373000E-01 
   1.15879000E+00    8.52161000E-01 
S    1    1.000000
   3.25840000E-01    1.00000000E+00 
S    1    1.000000
   1.02741000E-01    1.00000000E+00 
S    1    1.000000
   3.60000000E-02    1.00000000E+00 
P    1    1.000000
   7.50000000E-01    1.00000000E+00 

4    0
S    3    1.000000
   3.38650000E+01    2.54938000E-02 
   5.09479000E+00    1.90373000E-01 
   1.15879000E+00    8.52161000E-01 
S    1    1.000000
   3.25840000E-01    1.00000000E+00 
S    1    1.000000
   1.02741000E-01    1.00000000E+00 
S    1    1.000000
   3.60000000E-02    1.00000000E+00 
P    1    1.000000
   7.50000000E-01    1.00000000E+00 

5    0
S    1    1.000000
   4.56324000E+03    1.96665000E-03 
S    1    1.000000
   6.82024000E+02    1.52306000E-02 
S    1    1.000000
   1.54973000E+02    7.61269000E-02 
S    1    1.000000
   4.44553000E+01    2.60801000E-01 
S    1    1.000000
   1.30290000E+01    6.16462000E-01 
S    1    1.000000
   1.82773000E+00    2.21006000E-01 
SP   3    1.000000
   2.09642000E+01    1.14660000E-01   4.02487000E-02 
   4.80331000E+00    9.19999000E-01   2.37594000E-01 
   1.45933000E+00   -3.03068000E-03   8.15854000E-01 
SP   1    1.000000
   4.83456000E-01    1.00000000E+00   1.00000000E+00 
SP   1    1.000000
   1.45585000E-01    1.00000000E+00   1.00000000E+00 
SP   1    1.000000
   4.38000000E-02    1.00000000E+00   1.00000000E+00 
SP   1    1.000000
   1.31927711E-02    1.00000000E+00   1.00000000E+00 
D    1    1.000000
   6.26000000E-01    1.00000000E+00 

6    0
S    1    1.000000
   8.58850000E+03    1.89515000E-03 
S    1    1.000000
   1.29723000E+03    1.43859000E-02 
S    1    1.000000
   2.99296000E+02    7.07320000E-02 
S    1    1.000000
   8.73771000E+01    2.40001000E-01 
S    1    1.000000
   2.56789000E+01    5.94797000E-01 
S    1    1.000000
   3.74004000E+00    2.80802000E-01 
SP   3    1.000000
   4.21175000E+01    1.13889000E-01   3.65114000E-02 
   9.62837000E+00    9.20811000E-01   2.37153000E-01 
   2.85332000E+00   -3.27447000E-03   8.19702000E-01 
SP   1    1.000000
   9.05661000E-01    1.00000000E+00   1.00000000E+00 
SP   1    1.000000
   2.55611000E-01    1.00000000E+00   1.00000000E+00 
SP   1    1.000000
   8.45000000E-02    1.00000000E+00   1.00000000E+00 
SP   1    1.000000
   2.54518072E-02    1.00000000E+00   1.00000000E+00 
D    1    1.000000
   1.29200000E+00    1.00000000E+00 

7    0
S    1    1.000000
   4.56324000E+03    1.96665000E-03 
S    1    1.000000
   6.82024000E+02    1.52306000E-02 
S    1    1.000000
   1.54973000E+02    7.61269000E-02 
S    1    1.000000
   4.44553000E+01    2.60801000E-01 
S    1    1.000000
   1.30290000E+01    6.16462000E-01 
S    1    1.000000
   1.82773000E+00    2.21006000E-01 
SP   3    1.000000
   2.09642000E+01    1.14660000E-01   4.02487000E-02 
   4.80331000E+00    9.19999000E-01   2.37594000E-01 
   1.45933000E+00   -3.03068000E-03   8.15854000E-01 
SP   1    1.000000
   4.83456000E-01    1.00000000E+00   1.00000000E+00 
SP   1    1.000000
   1.45585000E-01    1.00000000E+00   1.00000000E+00 
SP   1    1.000000
   4.38000000E-02    1.00000000E+00   1.00000000E+00 
SP   1    1.000000
   1.31927711E-02    1.00000000E+00   1.00000000E+00 
D    1    1.000000
   6.26000000E-01    1.00000000E+00 

8    0
S    1    1.000000
   8.58850000E+03    1.89515000E-03 
S    1    1.000000
   1.29723000E+03    1.43859000E-02 
S    1    1.000000
   2.99296000E+02    7.07320000E-02 
S    1    1.000000
   8.73771000E+01    2.40001000E-01 
S    1    1.000000
   2.56789000E+01    5.94797000E-01 
S    1    1.000000
   3.74004000E+00    2.80802000E-01 
SP   3    1.000000
   4.21175000E+01    1.13889000E-01   3.65114000E-02 
   9.62837000E+00    9.20811000E-01   2.37153000E-01 
   2.85332000E+00   -3.27447000E-03   8.19702000E-01 
SP   1    1.000000
   9.05661000E-01    1.00000000E+00   1.00000000E+00 
SP   1    1.000000
   2.55611000E-01    1.00000000E+00   1.00000000E+00 
SP   1    1.000000
   8.45000000E-02    1.00000000E+00   1.00000000E+00 
SP   1    1.000000
   2.54518072E-02    1.00000000E+00   1.00000000E+00 
D    1    1.000000
   1.29200000E+00    1.00000000E+00 

9    0
S    1    1.000000
   6.29348000E+03    1.96979000E-03 
S    1    1.000000
   9.49044000E+02    1.49613000E-02 
S    1    1.000000
   2.18776000E+02    7.35006000E-02 
S    1    1.000000
   6.36916000E+01    2.48937000E-01 
S    1    1.000000
   1.88282000E+01    6.02460000E-01 
S    1    1.000000
   2.72023000E+00    2.56202000E-01 
SP   3    1.000000
   3.06331000E+01    1.11906000E-01   3.83119000E-02 
   7.02614000E+00    9.21666000E-01   2.37403000E-01 
   2.11205000E+00   -2.56919000E-03   8.17592000E-01 
SP   1    1.000000
   6.84009000E-01    1.00000000E+00   1.00000000E+00 
SP   1    1.000000
   2.00878000E-01    1.00000000E+00   1.00000000E+00 
SP   1    1.000000
   6.39000000E-02    1.00000000E+00   1.00000000E+00 
SP   1    1.000000
   1.92469880E-02    1.00000000E+00   1.00000000E+00 
D    1    1.000000
   9.13000000E-01    1.00000000E+00 

10    0
S    1    1.000000
   6.29348000E+03    1.96979000E-03 
S    1    1.000000
   9.49044000E+02    1.49613000E-02 
S    1    1.000000
   2.18776000E+02    7.35006000E-02 
S    1    1.000000
   6.36916000E+01    2.48937000E-01 
S    1    1.000000
   1.88282000E+01    6.02460000E-01 
S    1    1.000000
   2.72023000E+00    2.56202000E-01 
SP   3    1.000000
   3.06331000E+01    1.11906000E-01   3.83119000E-02 
   7.02614000E+00    9.21666000E-01   2.37403000E-01 
   2.11205000E+00   -2.56919000E-03   8.17592000E-01 
SP   1    1.000000
   6.84009000E-01    1.00000000E+00   1.00000000E+00 
SP   1    1.000000
   2.00878000E-01    1.00000000E+00   1.00000000E+00 
SP   1    1.000000
   6.39000000E-02    1.00000000E+00   1.00000000E+00 
SP   1    1.000000
   1.92469880E-02    1.00000000E+00   1.00000000E+00 
D    1    1.000000
   9.13000000E-01    1.00000000E+00 

11    0
S    1    1.000000
   4.56324000E+03    1.96665000E-03 
S    1    1.000000
   6.82024000E+02    1.52306000E-02 
S    1    1.000000
   1.54973000E+02    7.61269000E-02 
S    1    1.000000
   4.44553000E+01    2.60801000E-01 
S    1    1.000000
   1.30290000E+01    6.16462000E-01 
S    1    1.000000
   1.82773000E+00    2.21006000E-01 
SP   3    1.000000
   2.09642000E+01    1.14660000E-01   4.02487000E-02 
   4.80331000E+00    9.19999000E-01   2.37594000E-01 
   1.45933000E+00   -3.03068000E-03   8.15854000E-01 
SP   1    1.000000
   4.83456000E-01    1.00000000E+00   1.00000000E+00 
SP   1    1.000000
   1.45585000E-01    1.00000000E+00   1.00000000E+00 
SP   1    1.000000
   4.38000000E-02    1.00000000E+00   1.00000000E+00 
SP   1    1.000000
   1.31927711E-02    1.00000000E+00   1.00000000E+00 
D    1    1.000000
   6.26000000E-01    1.00000000E+00 

12    0
S    3    1.000000
   3.38650000E+01    2.54938000E-02 
   5.09479000E+00    1.90373000E-01 
   1.15879000E+00    8.52161000E-01 
S    1    1.000000
   3.25840000E-01    1.00000000E+00 
S    1    1.000000
   1.02741000E-01    1.00000000E+00 
S    1    1.000000
   3.60000000E-02    1.00000000E+00 
P    1    1.000000
   7.50000000E-01    1.00000000E+00 

[MO]
Sym=X
Ene=0.918615
Spin=Alpha
Occup=1
1    -0.00858795016
2    -0.0428407616
3    -0.147083246
4    -0.347471259
5    -0.126607689
6    -0.465325308
7    0.000778342374
8    -0.000684011448
9    -1.18537499e-16
10    -0.00157795249
11    -0.000730543876
12    0.000450592837
13    -4.05114169e-15
14    -0.00135997394
15    0.000175191807
16    -0.00104295522
17    6.54188095e-15
18    -0.00142213735
19    0.000451468012
20    -0.00110652496
21    -9.21275651e-14
22    0.000219345584
23    -0.000148900274
24    5.79987908e-05
25    5.77833298e-14
26    -0.000299647629
27    1.01620839e-15
28    0.000347008577
29    -2.57276572e-16
30    2.75244866e-05
31    -2.51225603e-05
32    -0.000114236052
33    0.000120719577
34    0.00025151415
35    -6.00644703e-05
36    -1.54637571e-05
37    1.82359634e-16
38    -0.00034792754
39    -0.000292884644
40    -0.000560548677
41    -0.000358945498
42    -3.98493009e-05
43    -0.000226520697
44    -9.22568991e-16
45    -1.46324433e-05
46    6.82150436e-05
47    -0.000284399847
48    -0.000311185387
49    -5.83209212e-06
50    -6.91519006e-06
51    1.4309507e-15
52    -2.07862115e-07
53    -1.63695859e-06
54    -7.97028966e-06
55    -2.80971841e-05
56    -5.80637664e-05
57    2.08936304e-05
58    -0.000110575929
59    3.3857565e-06
60    -1.90835757e-05
61    1.16535877e-15
62    -0.000110171061
63    -1.25970897e-05
64    7.00238866e-05
65    6.09923923e-15
66    -0.000183417034
67    0.000720537052
68    -0.000433615169
69    1.65620394e-15
70    -0.000476280199
71    0.000374355445
72    -0.000723763348
73    -1.00247634e-13
74    -0.000652492417
75    -0.000167446576
76    1.59280492e-05
77    -8.59094581e-14
78    1.30361462e-05
79    8.48324218e-16
80    -7.15813966e-06
81    7.80289388e-16
82    4.07876358e-05
83    2.66021362e-09
84    -8.13287668e-09
85    1.65316368e-07
86    -2.04526567e-07
87    6.95160454e-06
88    2.82361731e-05
89    -1.57468533e-05
90    4.32286583e-06
91    -1.97954892e-06
92    7.46550095e-16
93    -7.67086502e-05
94    -2.79204444e-05
95    2.71686333e-05
96    2.43722701e-15
97    0.000343128133
98    0.000169480423
99    -9.98502622e-05
100    -1.54312063e-15
101    0.00107137213
102    0.000168095818
103    -0.000117393615
104    1.20042049e-14
105    0.0013502084
106    0.000296286294
107    -2.61792022e-05
108    2.51362386e-14
109    1.76880713e-06
110    4.42482925e-16
111    -7.69238988e-07
112    2.67160078e-16
113    5.18354273e-06
114    6.23642181e-08
115    4.29866039e-07
116    2.52596461e-06
117    7.19962065e-06
118    3.12303315e-05
119    6.97688985e-05
120    -8.91573546e-06
121    -5.01473229e-06
122    -2.60776294e-05
123    1.69576667e-15
124    -0.000120507599
125    2.99843952e-05
126    0.000140576203
127    2.9473922e-15
128    -0.000187543019
129    9.12059104e-05
130    6.16587059e-05
131    7.52878238e-15
132    -4.75889407e-05
133    -0.000328893976
134    -0.000312639306
135    -1.03654928e-13
136    -3.8898037e-05
137    -0.000147529077
138    5.53083037e-05
139    2.64772193e-14
140    -3.4512462e-05
141    1.14532079e-15
142    2.78229795e-06
143    -4.94588079e-16
144    6.61555942e-05
145    7.7722189e-10
146    1.87378591e-09
147    3.88169839e-08
148    2.09378918e-08
149    1.08241651e-06
150    3.77890185e-06
151    -1.77088052e-06
152    -1.52261134e-06
153    -3.64906277e-06
154    3.97821728e-16
155    -6.21911303e-06
156    1.3631125e-05
157    2.58840391e-05
158    4.45616621e-15
159    -6.20581012e-05
160    -2.1814668e-05
161    -1.67778809e-05
162    -5.29035603e-15
163    0.000223239435
164    -1.24125161e-06
165    6.63137163e-06
166    2.00749321e-14
167    0.000121484841
168    -3.89401153e-05
169    5.26239895e-05
170    -7.3272989e-15
171    -5.37962933e-06
172    -6.19776797e-17
173    1.3326893e-06
174    -1.24002986e-16
175    6.79746563e-06
176    -2.36571681e-09
177    -6.10009117e-08
178    9.4698102e-09
179    -1.15822149e-06
180    8.03579197e-06
181    3.98501241e-05
182    -2.67405057e-05
183    9.47832723e-07
184    -8.46631147e-06
185    7.99346061e-16
186    -7.42808575e-05
187    2.88372184e-07
188    3.29272658e-05
189    9.72505385e-15
190    -8.2977944e-05
191    5.29223746e-05
192    -9.05282579e-06
193    -1.33201601e-14
194    -0.000309639556
195    -0.000130220581
196    0.000724117486
197    7.17790541e-14
198    -0.000815913194
199    0.000266419897
200    0.000143772207
201    6.44558605e-14
202    -3.87052865e-06
203    7.25539649e-17
204    2.4996057e-06
205    -1.89918293e-18
206    -5.60300802e-06
207    3.28025178e-07
208    2.3413499e-06
209    1.2718396e-05
210    3.89594065e-05
211    0.000136566412
212    0.00026264928
213    8.66953961e-05
214    -7.0615041e-05
215    4.42879912e-05
216    -2.82975436e-15
217    -0.000628622773
218    -0.000715281036
219    0.000422731208
220    7.35952425e-15
221    5.38839618e-05
222    -4.48813467e-05
223    -0.000120852577
224    -2.15478066e-14
225    0.00108494917
226    0.000614148006
227    -0.000120918588
228    7.02760411e-14
229    0.000295304282
230    0.000255927901
231    6.85625288e-05
232    2.3034276e-14
233    0.000321637456
234    9.23534917e-16
235    0.000114309252
236    -2.67150651e-16
237    -0.000182891654
238    -1.4197496e-05
239    -0.000109794999
240    -0.000548406828
241    -0.0018794684
242    -0.00446906432
243    -0.00165404165
244    -0.0058288865
245    0.00014531411
246    5.61763084e-05
247    -7.07550478e-16
248    -0.000341614882
249    0.000411870427
250    0.00018540314
251    1.97820448e-15
252    0.000812459536
253    -0.000597583946
254    0.000217701695
255    -1.18923673e-14
256    -0.000247325365
257    -0.000272722226
258    0.000804614098
259    9.6843805e-14
260    0.000422598141
261    8.54796696e-05
262    6.79808905e-05
263    -7.36350883e-14
264    -0.000215764207
265    6.23732724e-16
266    -9.7723919e-06
267    6.04625651e-16
268    -0.000203144234
269    -3.3307772e-05
270    -5.84248824e-05
271    0.000387624057
272    0.000486333254
273    9.69460956e-05
274    9.95639885e-06
275    -1.697923e-17
[5D]