[Molden Format]
[Atoms] (Angs)
  C      1    6     -0.00714236     -1.70213747     -0.00000000
  H      2    1     -2.06882847     -1.44022412      0.00000000
  H      3    1     -0.12337987     -2.77567521      0.00000000
  H      4    1      0.04651892      1.98813947     -0.00000000
  C      5    6     -1.21953563      0.40211669      0.00000000
  O      6    8     -2.25921553      1.03043814      0.00000000
  C      7    6      1.28797806      0.34644937     -0.00000000
  O      8    8      2.31273661      1.00537216     -0.00000000
  N      9    7      0.03446295      0.97739857     -0.00000000
  N     10    7     -1.17287765     -0.98229824      0.00000000
  C     11    6      1.20107039     -1.10433419     -0.00000000
  H     12    1      2.11220096     -1.67699125     -0.00000000
[GTO]
1    0
S    1    1.000000
   4.56324000E+03    1.96665000E-03 
S    1    1.000000
   6.82024000E+02    1.52306000E-02 
S    1    1.000000
   1.54973000E+02    7.61269000E-02 
S    1    1.000000
   4.44553000E+01    2.60801000E-01 
S    1    1.000000
   1.30290000E+01    6.16462000E-01 
S    1    1.000000
   1.82773000E+00    2.21006000E-01 
SP   3    1.000000
   2.09642000E+01    1.14660000E-01   4.02487000E-02 
   4.80331000E+00    9.19999000E-01   2.37594000E-01 
   1.45933000E+00   -3.03068000E-03   8.15854000E-01 
SP   1    1.000000
   4.83456000E-01    1.00000000E+00   1.00000000E+00 
SP   1    1.000000
   1.45585000E-01    1.00000000E+00   1.00000000E+00 
SP   1    1.000000
   4.38000000E-02    1.00000000E+00   1.00000000E+00 
SP   1    1.000000
   1.31927711E-02    1.00000000E+00   1.00000000E+00 
D    1    1.000000
   6.26000000E-01    1.00000000E+00 

2    0
S    3    1.000000
   3.38650000E+01    2.54938000E-02 
   5.09479000E+00    1.90373000E-01 
   1.15879000E+00    8.52161000E-01 
S    1    1.000000
   3.25840000E-01    1.00000000E+00 
S    1    1.000000
   1.02741000E-01    1.00000000E+00 
S    1    1.000000
   3.60000000E-02    1.00000000E+00 
P    1    1.000000
   7.50000000E-01    1.00000000E+00 

3    0
S    3    1.000000
   3.38650000E+01    2.54938000E-02 
   5.09479000E+00    1.90373000E-01 
   1.15879000E+00    8.52161000E-01 
S    1    1.000000
   3.25840000E-01    1.00000000E+00 
S    1    1.000000
   1.02741000E-01    1.00000000E+00 
S    1    1.000000
   3.60000000E-02    1.00000000E+00 
P    1    1.000000
   7.50000000E-01    1.00000000E+00 

4    0
S    3    1.000000
   3.38650000E+01    2.54938000E-02 
   5.09479000E+00    1.90373000E-01 
   1.15879000E+00    8.52161000E-01 
S    1    1.000000
   3.25840000E-01    1.00000000E+00 
S    1    1.000000
   1.02741000E-01    1.00000000E+00 
S    1    1.000000
   3.60000000E-02    1.00000000E+00 
P    1    1.000000
   7.50000000E-01    1.00000000E+00 

5    0
S    1    1.000000
   4.56324000E+03    1.96665000E-03 
S    1    1.000000
   6.82024000E+02    1.52306000E-02 
S    1    1.000000
   1.54973000E+02    7.61269000E-02 
S    1    1.000000
   4.44553000E+01    2.60801000E-01 
S    1    1.000000
   1.30290000E+01    6.16462000E-01 
S    1    1.000000
   1.82773000E+00    2.21006000E-01 
SP   3    1.000000
   2.09642000E+01    1.14660000E-01   4.02487000E-02 
   4.80331000E+00    9.19999000E-01   2.37594000E-01 
   1.45933000E+00   -3.03068000E-03   8.15854000E-01 
SP   1    1.000000
   4.83456000E-01    1.00000000E+00   1.00000000E+00 
SP   1    1.000000
   1.45585000E-01    1.00000000E+00   1.00000000E+00 
SP   1    1.000000
   4.38000000E-02    1.00000000E+00   1.00000000E+00 
SP   1    1.000000
   1.31927711E-02    1.00000000E+00   1.00000000E+00 
D    1    1.000000
   6.26000000E-01    1.00000000E+00 

6    0
S    1    1.000000
   8.58850000E+03    1.89515000E-03 
S    1    1.000000
   1.29723000E+03    1.43859000E-02 
S    1    1.000000
   2.99296000E+02    7.07320000E-02 
S    1    1.000000
   8.73771000E+01    2.40001000E-01 
S    1    1.000000
   2.56789000E+01    5.94797000E-01 
S    1    1.000000
   3.74004000E+00    2.80802000E-01 
SP   3    1.000000
   4.21175000E+01    1.13889000E-01   3.65114000E-02 
   9.62837000E+00    9.20811000E-01   2.37153000E-01 
   2.85332000E+00   -3.27447000E-03   8.19702000E-01 
SP   1    1.000000
   9.05661000E-01    1.00000000E+00   1.00000000E+00 
SP   1    1.000000
   2.55611000E-01    1.00000000E+00   1.00000000E+00 
SP   1    1.000000
   8.45000000E-02    1.00000000E+00   1.00000000E+00 
SP   1    1.000000
   2.54518072E-02    1.00000000E+00   1.00000000E+00 
D    1    1.000000
   1.29200000E+00    1.00000000E+00 

7    0
S    1    1.000000
   4.56324000E+03    1.96665000E-03 
S    1    1.000000
   6.82024000E+02    1.52306000E-02 
S    1    1.000000
   1.54973000E+02    7.61269000E-02 
S    1    1.000000
   4.44553000E+01    2.60801000E-01 
S    1    1.000000
   1.30290000E+01    6.16462000E-01 
S    1    1.000000
   1.82773000E+00    2.21006000E-01 
SP   3    1.000000
   2.09642000E+01    1.14660000E-01   4.02487000E-02 
   4.80331000E+00    9.19999000E-01   2.37594000E-01 
   1.45933000E+00   -3.03068000E-03   8.15854000E-01 
SP   1    1.000000
   4.83456000E-01    1.00000000E+00   1.00000000E+00 
SP   1    1.000000
   1.45585000E-01    1.00000000E+00   1.00000000E+00 
SP   1    1.000000
   4.38000000E-02    1.00000000E+00   1.00000000E+00 
SP   1    1.000000
   1.31927711E-02    1.00000000E+00   1.00000000E+00 
D    1    1.000000
   6.26000000E-01    1.00000000E+00 

8    0
S    1    1.000000
   8.58850000E+03    1.89515000E-03 
S    1    1.000000
   1.29723000E+03    1.43859000E-02 
S    1    1.000000
   2.99296000E+02    7.07320000E-02 
S    1    1.000000
   8.73771000E+01    2.40001000E-01 
S    1    1.000000
   2.56789000E+01    5.94797000E-01 
S    1    1.000000
   3.74004000E+00    2.80802000E-01 
SP   3    1.000000
   4.21175000E+01    1.13889000E-01   3.65114000E-02 
   9.62837000E+00    9.20811000E-01   2.37153000E-01 
   2.85332000E+00   -3.27447000E-03   8.19702000E-01 
SP   1    1.000000
   9.05661000E-01    1.00000000E+00   1.00000000E+00 
SP   1    1.000000
   2.55611000E-01    1.00000000E+00   1.00000000E+00 
SP   1    1.000000
   8.45000000E-02    1.00000000E+00   1.00000000E+00 
SP   1    1.000000
   2.54518072E-02    1.00000000E+00   1.00000000E+00 
D    1    1.000000
   1.29200000E+00    1.00000000E+00 

9    0
S    1    1.000000
   6.29348000E+03    1.96979000E-03 
S    1    1.000000
   9.49044000E+02    1.49613000E-02 
S    1    1.000000
   2.18776000E+02    7.35006000E-02 
S    1    1.000000
   6.36916000E+01    2.48937000E-01 
S    1    1.000000
   1.88282000E+01    6.02460000E-01 
S    1    1.000000
   2.72023000E+00    2.56202000E-01 
SP   3    1.000000
   3.06331000E+01    1.11906000E-01   3.83119000E-02 
   7.02614000E+00    9.21666000E-01   2.37403000E-01 
   2.11205000E+00   -2.56919000E-03   8.17592000E-01 
SP   1    1.000000
   6.84009000E-01    1.00000000E+00   1.00000000E+00 
SP   1    1.000000
   2.00878000E-01    1.00000000E+00   1.00000000E+00 
SP   1    1.000000
   6.39000000E-02    1.00000000E+00   1.00000000E+00 
SP   1    1.000000
   1.92469880E-02    1.00000000E+00   1.00000000E+00 
D    1    1.000000
   9.13000000E-01    1.00000000E+00 

10    0
S    1    1.000000
   6.29348000E+03    1.96979000E-03 
S    1    1.000000
   9.49044000E+02    1.49613000E-02 
S    1    1.000000
   2.18776000E+02    7.35006000E-02 
S    1    1.000000
   6.36916000E+01    2.48937000E-01 
S    1    1.000000
   1.88282000E+01    6.02460000E-01 
S    1    1.000000
   2.72023000E+00    2.56202000E-01 
SP   3    1.000000
   3.06331000E+01    1.11906000E-01   3.83119000E-02 
   7.02614000E+00    9.21666000E-01   2.37403000E-01 
   2.11205000E+00   -2.56919000E-03   8.17592000E-01 
SP   1    1.000000
   6.84009000E-01    1.00000000E+00   1.00000000E+00 
SP   1    1.000000
   2.00878000E-01    1.00000000E+00   1.00000000E+00 
SP   1    1.000000
   6.39000000E-02    1.00000000E+00   1.00000000E+00 
SP   1    1.000000
   1.92469880E-02    1.00000000E+00   1.00000000E+00 
D    1    1.000000
   9.13000000E-01    1.00000000E+00 

11    0
S    1    1.000000
   4.56324000E+03    1.96665000E-03 
S    1    1.000000
   6.82024000E+02    1.52306000E-02 
S    1    1.000000
   1.54973000E+02    7.61269000E-02 
S    1    1.000000
   4.44553000E+01    2.60801000E-01 
S    1    1.000000
   1.30290000E+01    6.16462000E-01 
S    1    1.000000
   1.82773000E+00    2.21006000E-01 
SP   3    1.000000
   2.09642000E+01    1.14660000E-01   4.02487000E-02 
   4.80331000E+00    9.19999000E-01   2.37594000E-01 
   1.45933000E+00   -3.03068000E-03   8.15854000E-01 
SP   1    1.000000
   4.83456000E-01    1.00000000E+00   1.00000000E+00 
SP   1    1.000000
   1.45585000E-01    1.00000000E+00   1.00000000E+00 
SP   1    1.000000
   4.38000000E-02    1.00000000E+00   1.00000000E+00 
SP   1    1.000000
   1.31927711E-02    1.00000000E+00   1.00000000E+00 
D    1    1.000000
   6.26000000E-01    1.00000000E+00 

12    0
S    3    1.000000
   3.38650000E+01    2.54938000E-02 
   5.09479000E+00    1.90373000E-01 
   1.15879000E+00    8.52161000E-01 
S    1    1.000000
   3.25840000E-01    1.00000000E+00 
S    1    1.000000
   1.02741000E-01    1.00000000E+00 
S    1    1.000000
   3.60000000E-02    1.00000000E+00 
P    1    1.000000
   7.50000000E-01    1.00000000E+00 

[MO]
Sym=X
Ene=0.922229
Spin=Alpha
Occup=1
1    0.000115298586
2    0.000574666808
3    0.00197570622
4    0.0046462269
5    0.00171733634
6    0.00634789951
7    -0.000153599602
8    -6.54959865e-05
9    2.27572894e-15
10    -0.000441224347
11    -0.000483923612
12    -0.000302097456
13    6.23013655e-15
14    0.000940683811
15    0.000196753841
16    0.000687525591
17    5.92803488e-15
18    0.00489916057
19    0.000356581509
20    0.0021155167
21    -5.46204013e-14
22    0.00047088905
23    -0.000192479006
24    0.000344047281
25    7.22803768e-14
26    -0.000289270341
27    3.70047657e-16
28    2.26275616e-05
29    -2.82262095e-16
30    -0.000170583444
31    -7.50364211e-06
32    -5.56610374e-05
33    -9.61293267e-05
34    -0.000334835251
35    -1.37505952e-05
36    1.31705284e-06
37    6.83927699e-16
38    -1.85954828e-05
39    -5.01705441e-05
40    0.000465503247
41    0.00114956976
42    -6.59206532e-05
43    -6.01249411e-05
44    1.77177267e-15
45    -1.50769586e-05
46    1.122752e-05
47    0.000177354932
48    3.66155815e-06
49    -6.83509678e-06
50    -3.2197052e-06
51    -4.5973489e-16
52    -6.63212828e-08
53    -5.38117284e-07
54    -2.50639069e-06
55    -9.2970375e-06
56    -1.54277112e-05
57    2.00678322e-05
58    -4.37777819e-05
59    6.59065329e-06
60    -3.65297537e-06
61    -1.92853835e-15
62    -6.70824743e-05
63    -2.83948909e-05
64    1.17430344e-05
65    1.65869744e-16
66    0.000392246164
67    0.000370381313
68    -0.000174782035
69    -4.20668839e-15
70    -0.000835558535
71    -0.000142850163
72    0.000345491576
73    -7.96651858e-14
74    -0.00102041652
75    -4.00775267e-05
76    0.000154052625
77    -6.13996649e-14
78    -5.94487442e-06
79    -1.32137171e-15
80    -7.35975233e-06
81    6.81528884e-16
82    -8.98144311e-06
83    5.70113432e-10
84    -3.48553347e-09
85    3.92479216e-08
86    -7.72353919e-08
87    1.87549702e-06
88    7.80708883e-06
89    -4.55724211e-06
90    2.79273676e-06
91    -2.8668098e-07
92    -1.16729845e-15
93    -1.89625728e-05
94    -1.4075915e-05
95    3.45087855e-06
96    -3.03879439e-15
97    7.0266195e-05
98    3.87408493e-05
99    -1.99609874e-05
100    -3.36067283e-15
101    0.000487029606
102    0.000153524728
103    -9.51624345e-05
104    5.17819723e-15
105    -0.000307285772
106    -9.60797647e-05
107    -6.83831998e-05
108    3.00294434e-14
109    4.49662953e-07
110    1.6594802e-16
111    -1.10569079e-06
112    -6.5089904e-16
113    -1.84944875e-06
114    3.70494325e-06
115    2.86302973e-05
116    0.0001433066
117    0.00049083133
118    0.00117894539
119    0.000595869485
120    0.00154560736
121    1.29835962e-08
122    6.99381854e-05
123    3.604569e-16
124    -0.000618098031
125    4.27642342e-05
126    0.000782278834
127    -3.27444461e-15
128    0.000489161377
129    -0.000220598931
130    -0.000794829407
131    6.33592048e-15
132    0.00291182095
133    -0.000966598785
134    -0.00110203225
135    -7.37091248e-14
136    0.000714124695
137    -3.0241343e-05
138    -2.45147604e-05
139    4.6188011e-14
140    -5.76773697e-05
141    -1.28228313e-15
142    9.30106587e-05
143    -9.50478468e-16
144    0.000417709081
145    -6.48683196e-09
146    -8.53596077e-08
147    -1.64251954e-07
148    -1.51520279e-06
149    5.99200246e-06
150    3.54223873e-05
151    -2.80517825e-05
152    -9.38773123e-06
153    -2.58220222e-05
154    -1.42547915e-15
155    -6.81257418e-05
156    4.88090159e-05
157    5.02697702e-05
158    -1.52332753e-16
159    8.32903797e-05
160    -9.46426302e-05
161    1.27131858e-05
162    -4.82506166e-15
163    0.000598501004
164    -6.86964365e-05
165    3.86047323e-06
166    8.55461766e-15
167    0.00133240843
168    -0.000237022239
169    -1.01683718e-05
170    4.12686047e-16
171    -3.2961245e-05
172    -1.35616337e-16
173    1.8524937e-06
174    2.45903028e-16
175    2.47411679e-05
176    -8.76729875e-09
177    -1.21641567e-07
178    -2.061676e-07
179    -2.20213858e-06
180    8.84012021e-06
181    5.3450017e-05
182    -3.94184687e-05
183    2.56973991e-05
184    -1.40799739e-05
185    -3.16453092e-15
186    -8.81631257e-05
187    -0.000100818769
188    4.39088693e-05
189    3.38122073e-15
190    -0.000109112892
191    0.000208609115
192    2.49524732e-05
193    -2.00231563e-14
194    -0.000314655221
195    0.000248146567
196    -0.000153003949
197    5.88420434e-14
198    -0.000177272064
199    -0.000538626419
200    -2.36865645e-05
201    4.33913609e-14
202    3.77414893e-05
203    -3.93073251e-16
204    3.41411695e-06
205    -3.53648533e-17
206    -1.77350778e-05
207    -1.30950846e-08
208    -1.44551361e-07
209    -3.9158418e-07
210    -2.5625232e-06
211    5.25043504e-06
212    4.02605305e-05
213    -3.50196538e-05
214    2.49803563e-05
215    -9.04339148e-06
216    -3.12874268e-16
217    -5.0575696e-05
218    -7.57361318e-05
219    3.44289209e-05
220    7.41620973e-15
221    -0.000263086083
222    -0.000167349986
223    -0.000134662545
224    -9.70599127e-15
225    -0.00112956112
226    -0.000471063169
227    -0.000263797264
228    5.74805984e-14
229    -0.000584184231
230    -0.000198064594
231    -4.21054618e-05
232    1.50524585e-14
233    2.46058768e-05
234    -5.18059215e-16
235    7.16942362e-06
236    4.77006975e-16
237    -3.18481166e-05
238    -0.0011090171
239    -0.00858582222
240    -0.0428280593
241    -0.147056832
242    -0.347375401
243    -0.1271005
244    -0.46490048
245    0.00030433008
246    -0.000852760983
247    6.42012854e-16
248    -0.00194432134
249    -8.04894476e-05
250    0.000631499787
251    6.02137933e-15
252    -0.00160241799
253    0.00079577613
254    -0.000880733057
255    -5.51434248e-15
256    -0.00696682791
257    0.00206789872
258    -0.00127162663
259    7.88861788e-14
260    -5.00507322e-05
261    -7.53406062e-05
262    -0.000310215861
263    -7.8023115e-14
264    -4.63316379e-05
265    -1.18542958e-15
266    6.57841313e-05
267    -1.04446479e-15
268    -0.000173849488
269    -0.000354528065
270    -0.000316333605
271    -0.000606280935
272    -0.00087460021
273    0.000209590181
274    -0.000122249169
275    9.65697949e-16
[5D]