[Molden Format]
[Atoms] (Angs)
  C      1    6     -0.00714236     -1.70213747     -0.00000000
  H      2    1     -2.06882847     -1.44022412      0.00000000
  H      3    1     -0.12337987     -2.77567521      0.00000000
  H      4    1      0.04651892      1.98813947     -0.00000000
  C      5    6     -1.21953563      0.40211669      0.00000000
  O      6    8     -2.25921553      1.03043814      0.00000000
  C      7    6      1.28797806      0.34644937     -0.00000000
  O      8    8      2.31273661      1.00537216     -0.00000000
  N      9    7      0.03446295      0.97739857     -0.00000000
  N     10    7     -1.17287765     -0.98229824      0.00000000
  C     11    6      1.20107039     -1.10433419     -0.00000000
  H     12    1      2.11220096     -1.67699125     -0.00000000
[GTO]
1    0
S    1    1.000000
   4.56324000E+03    1.96665000E-03 
S    1    1.000000
   6.82024000E+02    1.52306000E-02 
S    1    1.000000
   1.54973000E+02    7.61269000E-02 
S    1    1.000000
   4.44553000E+01    2.60801000E-01 
S    1    1.000000
   1.30290000E+01    6.16462000E-01 
S    1    1.000000
   1.82773000E+00    2.21006000E-01 
SP   3    1.000000
   2.09642000E+01    1.14660000E-01   4.02487000E-02 
   4.80331000E+00    9.19999000E-01   2.37594000E-01 
   1.45933000E+00   -3.03068000E-03   8.15854000E-01 
SP   1    1.000000
   4.83456000E-01    1.00000000E+00   1.00000000E+00 
SP   1    1.000000
   1.45585000E-01    1.00000000E+00   1.00000000E+00 
SP   1    1.000000
   4.38000000E-02    1.00000000E+00   1.00000000E+00 
SP   1    1.000000
   1.31927711E-02    1.00000000E+00   1.00000000E+00 
D    1    1.000000
   6.26000000E-01    1.00000000E+00 

2    0
S    3    1.000000
   3.38650000E+01    2.54938000E-02 
   5.09479000E+00    1.90373000E-01 
   1.15879000E+00    8.52161000E-01 
S    1    1.000000
   3.25840000E-01    1.00000000E+00 
S    1    1.000000
   1.02741000E-01    1.00000000E+00 
S    1    1.000000
   3.60000000E-02    1.00000000E+00 
P    1    1.000000
   7.50000000E-01    1.00000000E+00 

3    0
S    3    1.000000
   3.38650000E+01    2.54938000E-02 
   5.09479000E+00    1.90373000E-01 
   1.15879000E+00    8.52161000E-01 
S    1    1.000000
   3.25840000E-01    1.00000000E+00 
S    1    1.000000
   1.02741000E-01    1.00000000E+00 
S    1    1.000000
   3.60000000E-02    1.00000000E+00 
P    1    1.000000
   7.50000000E-01    1.00000000E+00 

4    0
S    3    1.000000
   3.38650000E+01    2.54938000E-02 
   5.09479000E+00    1.90373000E-01 
   1.15879000E+00    8.52161000E-01 
S    1    1.000000
   3.25840000E-01    1.00000000E+00 
S    1    1.000000
   1.02741000E-01    1.00000000E+00 
S    1    1.000000
   3.60000000E-02    1.00000000E+00 
P    1    1.000000
   7.50000000E-01    1.00000000E+00 

5    0
S    1    1.000000
   4.56324000E+03    1.96665000E-03 
S    1    1.000000
   6.82024000E+02    1.52306000E-02 
S    1    1.000000
   1.54973000E+02    7.61269000E-02 
S    1    1.000000
   4.44553000E+01    2.60801000E-01 
S    1    1.000000
   1.30290000E+01    6.16462000E-01 
S    1    1.000000
   1.82773000E+00    2.21006000E-01 
SP   3    1.000000
   2.09642000E+01    1.14660000E-01   4.02487000E-02 
   4.80331000E+00    9.19999000E-01   2.37594000E-01 
   1.45933000E+00   -3.03068000E-03   8.15854000E-01 
SP   1    1.000000
   4.83456000E-01    1.00000000E+00   1.00000000E+00 
SP   1    1.000000
   1.45585000E-01    1.00000000E+00   1.00000000E+00 
SP   1    1.000000
   4.38000000E-02    1.00000000E+00   1.00000000E+00 
SP   1    1.000000
   1.31927711E-02    1.00000000E+00   1.00000000E+00 
D    1    1.000000
   6.26000000E-01    1.00000000E+00 

6    0
S    1    1.000000
   8.58850000E+03    1.89515000E-03 
S    1    1.000000
   1.29723000E+03    1.43859000E-02 
S    1    1.000000
   2.99296000E+02    7.07320000E-02 
S    1    1.000000
   8.73771000E+01    2.40001000E-01 
S    1    1.000000
   2.56789000E+01    5.94797000E-01 
S    1    1.000000
   3.74004000E+00    2.80802000E-01 
SP   3    1.000000
   4.21175000E+01    1.13889000E-01   3.65114000E-02 
   9.62837000E+00    9.20811000E-01   2.37153000E-01 
   2.85332000E+00   -3.27447000E-03   8.19702000E-01 
SP   1    1.000000
   9.05661000E-01    1.00000000E+00   1.00000000E+00 
SP   1    1.000000
   2.55611000E-01    1.00000000E+00   1.00000000E+00 
SP   1    1.000000
   8.45000000E-02    1.00000000E+00   1.00000000E+00 
SP   1    1.000000
   2.54518072E-02    1.00000000E+00   1.00000000E+00 
D    1    1.000000
   1.29200000E+00    1.00000000E+00 

7    0
S    1    1.000000
   4.56324000E+03    1.96665000E-03 
S    1    1.000000
   6.82024000E+02    1.52306000E-02 
S    1    1.000000
   1.54973000E+02    7.61269000E-02 
S    1    1.000000
   4.44553000E+01    2.60801000E-01 
S    1    1.000000
   1.30290000E+01    6.16462000E-01 
S    1    1.000000
   1.82773000E+00    2.21006000E-01 
SP   3    1.000000
   2.09642000E+01    1.14660000E-01   4.02487000E-02 
   4.80331000E+00    9.19999000E-01   2.37594000E-01 
   1.45933000E+00   -3.03068000E-03   8.15854000E-01 
SP   1    1.000000
   4.83456000E-01    1.00000000E+00   1.00000000E+00 
SP   1    1.000000
   1.45585000E-01    1.00000000E+00   1.00000000E+00 
SP   1    1.000000
   4.38000000E-02    1.00000000E+00   1.00000000E+00 
SP   1    1.000000
   1.31927711E-02    1.00000000E+00   1.00000000E+00 
D    1    1.000000
   6.26000000E-01    1.00000000E+00 

8    0
S    1    1.000000
   8.58850000E+03    1.89515000E-03 
S    1    1.000000
   1.29723000E+03    1.43859000E-02 
S    1    1.000000
   2.99296000E+02    7.07320000E-02 
S    1    1.000000
   8.73771000E+01    2.40001000E-01 
S    1    1.000000
   2.56789000E+01    5.94797000E-01 
S    1    1.000000
   3.74004000E+00    2.80802000E-01 
SP   3    1.000000
   4.21175000E+01    1.13889000E-01   3.65114000E-02 
   9.62837000E+00    9.20811000E-01   2.37153000E-01 
   2.85332000E+00   -3.27447000E-03   8.19702000E-01 
SP   1    1.000000
   9.05661000E-01    1.00000000E+00   1.00000000E+00 
SP   1    1.000000
   2.55611000E-01    1.00000000E+00   1.00000000E+00 
SP   1    1.000000
   8.45000000E-02    1.00000000E+00   1.00000000E+00 
SP   1    1.000000
   2.54518072E-02    1.00000000E+00   1.00000000E+00 
D    1    1.000000
   1.29200000E+00    1.00000000E+00 

9    0
S    1    1.000000
   6.29348000E+03    1.96979000E-03 
S    1    1.000000
   9.49044000E+02    1.49613000E-02 
S    1    1.000000
   2.18776000E+02    7.35006000E-02 
S    1    1.000000
   6.36916000E+01    2.48937000E-01 
S    1    1.000000
   1.88282000E+01    6.02460000E-01 
S    1    1.000000
   2.72023000E+00    2.56202000E-01 
SP   3    1.000000
   3.06331000E+01    1.11906000E-01   3.83119000E-02 
   7.02614000E+00    9.21666000E-01   2.37403000E-01 
   2.11205000E+00   -2.56919000E-03   8.17592000E-01 
SP   1    1.000000
   6.84009000E-01    1.00000000E+00   1.00000000E+00 
SP   1    1.000000
   2.00878000E-01    1.00000000E+00   1.00000000E+00 
SP   1    1.000000
   6.39000000E-02    1.00000000E+00   1.00000000E+00 
SP   1    1.000000
   1.92469880E-02    1.00000000E+00   1.00000000E+00 
D    1    1.000000
   9.13000000E-01    1.00000000E+00 

10    0
S    1    1.000000
   6.29348000E+03    1.96979000E-03 
S    1    1.000000
   9.49044000E+02    1.49613000E-02 
S    1    1.000000
   2.18776000E+02    7.35006000E-02 
S    1    1.000000
   6.36916000E+01    2.48937000E-01 
S    1    1.000000
   1.88282000E+01    6.02460000E-01 
S    1    1.000000
   2.72023000E+00    2.56202000E-01 
SP   3    1.000000
   3.06331000E+01    1.11906000E-01   3.83119000E-02 
   7.02614000E+00    9.21666000E-01   2.37403000E-01 
   2.11205000E+00   -2.56919000E-03   8.17592000E-01 
SP   1    1.000000
   6.84009000E-01    1.00000000E+00   1.00000000E+00 
SP   1    1.000000
   2.00878000E-01    1.00000000E+00   1.00000000E+00 
SP   1    1.000000
   6.39000000E-02    1.00000000E+00   1.00000000E+00 
SP   1    1.000000
   1.92469880E-02    1.00000000E+00   1.00000000E+00 
D    1    1.000000
   9.13000000E-01    1.00000000E+00 

11    0
S    1    1.000000
   4.56324000E+03    1.96665000E-03 
S    1    1.000000
   6.82024000E+02    1.52306000E-02 
S    1    1.000000
   1.54973000E+02    7.61269000E-02 
S    1    1.000000
   4.44553000E+01    2.60801000E-01 
S    1    1.000000
   1.30290000E+01    6.16462000E-01 
S    1    1.000000
   1.82773000E+00    2.21006000E-01 
SP   3    1.000000
   2.09642000E+01    1.14660000E-01   4.02487000E-02 
   4.80331000E+00    9.19999000E-01   2.37594000E-01 
   1.45933000E+00   -3.03068000E-03   8.15854000E-01 
SP   1    1.000000
   4.83456000E-01    1.00000000E+00   1.00000000E+00 
SP   1    1.000000
   1.45585000E-01    1.00000000E+00   1.00000000E+00 
SP   1    1.000000
   4.38000000E-02    1.00000000E+00   1.00000000E+00 
SP   1    1.000000
   1.31927711E-02    1.00000000E+00   1.00000000E+00 
D    1    1.000000
   6.26000000E-01    1.00000000E+00 

12    0
S    3    1.000000
   3.38650000E+01    2.54938000E-02 
   5.09479000E+00    1.90373000E-01 
   1.15879000E+00    8.52161000E-01 
S    1    1.000000
   3.25840000E-01    1.00000000E+00 
S    1    1.000000
   1.02741000E-01    1.00000000E+00 
S    1    1.000000
   3.60000000E-02    1.00000000E+00 
P    1    1.000000
   7.50000000E-01    1.00000000E+00 

[MO]
Sym=X
Ene=0.929093
Spin=Alpha
Occup=1
1    1.56564144e-06
2    7.86077159e-06
3    2.68148229e-05
4    6.62827549e-05
5    4.32377177e-05
6    7.50315442e-05
7    -1.44957215e-05
8    6.10131566e-06
9    -3.03535088e-15
10    -5.31056599e-05
11    7.10776052e-05
12    -1.45979394e-05
13    -6.70922495e-15
14    0.000535528133
15    -0.00011181432
16    0.000255906203
17    -5.0091602e-15
18    -0.00289415159
19    -0.000449080961
20    -0.00111841842
21    -2.07231397e-14
22    -0.000305257714
23    0.000248815318
24    -4.13799093e-05
25    -5.95497754e-14
26    5.20154437e-05
27    5.78705556e-17
28    -1.99073328e-05
29    2.18571305e-16
30    -1.46767409e-06
31    -2.90449409e-05
32    -6.92784693e-05
33    1.25279614e-05
34    -0.00023158727
35    -4.39685725e-05
36    -3.74980636e-05
37    -1.52747279e-15
38    -1.26361322e-05
39    4.51885495e-06
40    4.51898246e-05
41    -0.000758991182
42    9.34286768e-06
43    -1.07883365e-05
44    -1.76777636e-15
45    -3.15805113e-05
46    -6.82849693e-05
47    6.27317932e-05
48    0.000188891625
49    -7.02520315e-06
50    4.71918733e-05
51    1.93817249e-15
52    -0.00110956958
53    -0.00858971861
54    -0.0428506391
55    -0.147115574
56    -0.347565951
57    -0.126421319
58    -0.465476791
59    -0.00107275413
60    0.000287564143
61    1.30130726e-15
62    -0.00164274472
63    0.00110154453
64    -0.000363899793
65    5.94469996e-15
66    -0.00119958643
67    -0.000470849304
68    0.000130541203
69    -4.5579456e-15
70    0.000576415024
71    0.000367883568
72    -0.000749861374
73    1.71780996e-14
74    0.00037155914
75    -6.57066111e-05
76    -0.000145826233
77    2.53112445e-14
78    0.000344293841
79    2.24066304e-15
80    0.000227408958
81    1.5866055e-16
82    -0.000117113008
83    3.83398238e-07
84    2.82817904e-06
85    1.46923223e-05
86    4.73856567e-05
87    0.000137407215
88    0.000171120597
89    0.000207700711
90    -0.000212219869
91    0.000131219411
92    1.55378922e-15
93    -0.0005651836
94    -0.000496580311
95    0.000300443813
96    2.29173029e-15
97    0.000324620151
98    0.00026005681
99    -0.000157797876
100    4.80461578e-15
101    -0.000436235704
102    -0.00034975164
103    0.000238837809
104    7.75891302e-16
105    0.000324448405
106    7.24823596e-05
107    -4.7664834e-05
108    -2.58799699e-14
109    0.000227397764
110    -4.04156123e-16
111    0.000109521586
112    2.57236216e-16
113    -0.000124194619
114    -8.39721548e-07
115    -6.51904864e-06
116    -3.239249e-05
117    -0.000111693658
118    -0.000258437629
119    -6.77423079e-05
120    -0.000368027529
121    -1.68130483e-05
122    3.41877041e-06
123    2.20144224e-15
124    -5.97927908e-05
125    5.13000212e-05
126    -1.35582945e-05
127    2.75286992e-15
128    -5.09728402e-05
129    -0.000581246112
130    -0.000381636879
131    6.25604393e-15
132    -0.00341491372
133    0.000315260462
134    0.000833762184
135    -4.60010075e-14
136    -0.00039794786
137    8.37598746e-05
138    0.000217606491
139    -2.11847326e-14
140    1.35431406e-05
141    1.55297693e-15
142    -5.92273903e-06
143    1.96316003e-16
144    -3.70766737e-05
145    2.44034601e-09
146    -8.90244986e-10
147    1.36768345e-07
148    -6.17605188e-08
149    4.94757635e-06
150    1.93868647e-05
151    -1.02911351e-05
152    -1.83209746e-06
153    -7.77780599e-07
154    1.44683316e-15
155    -5.3290004e-05
156    2.56354232e-05
157    4.55615868e-06
158    3.4495395e-15
159    0.000249138128
160    -0.000109440647
161    -6.87191276e-05
162    4.94488186e-16
163    0.000960421596
164    -0.00030734681
165    -0.000144621328
166    1.02073973e-14
167    0.000440035133
168    -8.33590152e-05
169    -0.000132057713
170    1.01454903e-14
171    2.59824048e-06
172    -1.4740043e-16
173    -2.77929989e-07
174    -4.87252955e-16
175    -4.40063548e-06
176    3.02625448e-07
177    2.15073389e-06
178    1.17566724e-05
179    3.5757255e-05
180    0.000127855085
181    0.000248941138
182    7.5438133e-05
183    6.37968238e-05
184    4.31960878e-05
185    1.92758258e-15
186    -0.000583803473
187    0.000689167289
188    0.000321107109
189    6.00233899e-15
190    -8.94896787e-05
191    -7.15857677e-05
192    0.000134940502
193    9.23181123e-16
194    0.000859351064
195    -0.000734031238
196    -0.000313891196
197    1.82064949e-14
198    0.00052918743
199    -0.000287877328
200    -0.000174732901
201    -1.37359213e-14
202    -0.000253244562
203    -1.94336746e-16
204    0.00012305748
205    -6.44961224e-17
206    -0.000226115539
207    2.98115098e-07
208    2.14392463e-06
209    1.15207388e-05
210    3.56936722e-05
211    0.000120212168
212    0.000212761015
213    8.98929151e-05
214    -4.70874783e-06
215    -8.4387206e-05
216    -1.36922202e-15
217    -0.000519141356
218    2.31446878e-05
219    -0.000681105845
220    -4.09260379e-15
221    1.88687194e-05
222    -0.000166355689
223    0.000180526616
224    7.40444575e-16
225    -0.000195165295
226    -9.62087804e-05
227    6.69223506e-05
228    -1.00970805e-14
229    -0.000520490787
230    2.56181843e-05
231    -0.000406136467
232    2.662324e-14
233    2.07017742e-05
234    1.2428454e-15
235    9.4338731e-05
236    -6.53726352e-16
237    0.000307831743
238    5.88085667e-08
239    4.31649836e-07
240    2.32342717e-06
241    7.32356843e-06
242    2.37180609e-05
243    3.62295288e-05
244    8.71944744e-06
245    -9.40416008e-06
246    4.12960102e-06
247    -1.94158943e-15
248    -6.26950729e-05
249    7.37884226e-05
250    -2.72983721e-05
251    -2.25662605e-15
252    -0.000398111027
253    0.000220343561
254    -0.000184299821
255    -7.63900522e-15
256    0.00509220593
257    -0.000769487438
258    0.000527534704
259    2.52307381e-14
260    0.000230695202
261    -0.000105171406
262    1.29620198e-05
263    3.29867792e-14
264    -2.31344995e-05
265    1.64281818e-15
266    -1.43955331e-06
267    1.15883534e-15
268    2.58633449e-07
269    -3.94105587e-06
270    -7.08719259e-05
271    -6.31275258e-05
272    5.00879803e-05
273    1.67023634e-05
274    -7.78427045e-06
275    -9.75545755e-16
[5D]