[Molden Format]
[Atoms] (Angs)
  C      1    6     -0.00714236     -1.70213747     -0.00000000
  H      2    1     -2.06882847     -1.44022412      0.00000000
  H      3    1     -0.12337987     -2.77567521      0.00000000
  H      4    1      0.04651892      1.98813947     -0.00000000
  C      5    6     -1.21953563      0.40211669      0.00000000
  O      6    8     -2.25921553      1.03043814      0.00000000
  C      7    6      1.28797806      0.34644937     -0.00000000
  O      8    8      2.31273661      1.00537216     -0.00000000
  N      9    7      0.03446295      0.97739857     -0.00000000
  N     10    7     -1.17287765     -0.98229824      0.00000000
  C     11    6      1.20107039     -1.10433419     -0.00000000
  H     12    1      2.11220096     -1.67699125     -0.00000000
[GTO]
1    0
S    1    1.000000
   4.56324000E+03    1.96665000E-03 
S    1    1.000000
   6.82024000E+02    1.52306000E-02 
S    1    1.000000
   1.54973000E+02    7.61269000E-02 
S    1    1.000000
   4.44553000E+01    2.60801000E-01 
S    1    1.000000
   1.30290000E+01    6.16462000E-01 
S    1    1.000000
   1.82773000E+00    2.21006000E-01 
SP   3    1.000000
   2.09642000E+01    1.14660000E-01   4.02487000E-02 
   4.80331000E+00    9.19999000E-01   2.37594000E-01 
   1.45933000E+00   -3.03068000E-03   8.15854000E-01 
SP   1    1.000000
   4.83456000E-01    1.00000000E+00   1.00000000E+00 
SP   1    1.000000
   1.45585000E-01    1.00000000E+00   1.00000000E+00 
SP   1    1.000000
   4.38000000E-02    1.00000000E+00   1.00000000E+00 
SP   1    1.000000
   1.31927711E-02    1.00000000E+00   1.00000000E+00 
D    1    1.000000
   6.26000000E-01    1.00000000E+00 

2    0
S    3    1.000000
   3.38650000E+01    2.54938000E-02 
   5.09479000E+00    1.90373000E-01 
   1.15879000E+00    8.52161000E-01 
S    1    1.000000
   3.25840000E-01    1.00000000E+00 
S    1    1.000000
   1.02741000E-01    1.00000000E+00 
S    1    1.000000
   3.60000000E-02    1.00000000E+00 
P    1    1.000000
   7.50000000E-01    1.00000000E+00 

3    0
S    3    1.000000
   3.38650000E+01    2.54938000E-02 
   5.09479000E+00    1.90373000E-01 
   1.15879000E+00    8.52161000E-01 
S    1    1.000000
   3.25840000E-01    1.00000000E+00 
S    1    1.000000
   1.02741000E-01    1.00000000E+00 
S    1    1.000000
   3.60000000E-02    1.00000000E+00 
P    1    1.000000
   7.50000000E-01    1.00000000E+00 

4    0
S    3    1.000000
   3.38650000E+01    2.54938000E-02 
   5.09479000E+00    1.90373000E-01 
   1.15879000E+00    8.52161000E-01 
S    1    1.000000
   3.25840000E-01    1.00000000E+00 
S    1    1.000000
   1.02741000E-01    1.00000000E+00 
S    1    1.000000
   3.60000000E-02    1.00000000E+00 
P    1    1.000000
   7.50000000E-01    1.00000000E+00 

5    0
S    1    1.000000
   4.56324000E+03    1.96665000E-03 
S    1    1.000000
   6.82024000E+02    1.52306000E-02 
S    1    1.000000
   1.54973000E+02    7.61269000E-02 
S    1    1.000000
   4.44553000E+01    2.60801000E-01 
S    1    1.000000
   1.30290000E+01    6.16462000E-01 
S    1    1.000000
   1.82773000E+00    2.21006000E-01 
SP   3    1.000000
   2.09642000E+01    1.14660000E-01   4.02487000E-02 
   4.80331000E+00    9.19999000E-01   2.37594000E-01 
   1.45933000E+00   -3.03068000E-03   8.15854000E-01 
SP   1    1.000000
   4.83456000E-01    1.00000000E+00   1.00000000E+00 
SP   1    1.000000
   1.45585000E-01    1.00000000E+00   1.00000000E+00 
SP   1    1.000000
   4.38000000E-02    1.00000000E+00   1.00000000E+00 
SP   1    1.000000
   1.31927711E-02    1.00000000E+00   1.00000000E+00 
D    1    1.000000
   6.26000000E-01    1.00000000E+00 

6    0
S    1    1.000000
   8.58850000E+03    1.89515000E-03 
S    1    1.000000
   1.29723000E+03    1.43859000E-02 
S    1    1.000000
   2.99296000E+02    7.07320000E-02 
S    1    1.000000
   8.73771000E+01    2.40001000E-01 
S    1    1.000000
   2.56789000E+01    5.94797000E-01 
S    1    1.000000
   3.74004000E+00    2.80802000E-01 
SP   3    1.000000
   4.21175000E+01    1.13889000E-01   3.65114000E-02 
   9.62837000E+00    9.20811000E-01   2.37153000E-01 
   2.85332000E+00   -3.27447000E-03   8.19702000E-01 
SP   1    1.000000
   9.05661000E-01    1.00000000E+00   1.00000000E+00 
SP   1    1.000000
   2.55611000E-01    1.00000000E+00   1.00000000E+00 
SP   1    1.000000
   8.45000000E-02    1.00000000E+00   1.00000000E+00 
SP   1    1.000000
   2.54518072E-02    1.00000000E+00   1.00000000E+00 
D    1    1.000000
   1.29200000E+00    1.00000000E+00 

7    0
S    1    1.000000
   4.56324000E+03    1.96665000E-03 
S    1    1.000000
   6.82024000E+02    1.52306000E-02 
S    1    1.000000
   1.54973000E+02    7.61269000E-02 
S    1    1.000000
   4.44553000E+01    2.60801000E-01 
S    1    1.000000
   1.30290000E+01    6.16462000E-01 
S    1    1.000000
   1.82773000E+00    2.21006000E-01 
SP   3    1.000000
   2.09642000E+01    1.14660000E-01   4.02487000E-02 
   4.80331000E+00    9.19999000E-01   2.37594000E-01 
   1.45933000E+00   -3.03068000E-03   8.15854000E-01 
SP   1    1.000000
   4.83456000E-01    1.00000000E+00   1.00000000E+00 
SP   1    1.000000
   1.45585000E-01    1.00000000E+00   1.00000000E+00 
SP   1    1.000000
   4.38000000E-02    1.00000000E+00   1.00000000E+00 
SP   1    1.000000
   1.31927711E-02    1.00000000E+00   1.00000000E+00 
D    1    1.000000
   6.26000000E-01    1.00000000E+00 

8    0
S    1    1.000000
   8.58850000E+03    1.89515000E-03 
S    1    1.000000
   1.29723000E+03    1.43859000E-02 
S    1    1.000000
   2.99296000E+02    7.07320000E-02 
S    1    1.000000
   8.73771000E+01    2.40001000E-01 
S    1    1.000000
   2.56789000E+01    5.94797000E-01 
S    1    1.000000
   3.74004000E+00    2.80802000E-01 
SP   3    1.000000
   4.21175000E+01    1.13889000E-01   3.65114000E-02 
   9.62837000E+00    9.20811000E-01   2.37153000E-01 
   2.85332000E+00   -3.27447000E-03   8.19702000E-01 
SP   1    1.000000
   9.05661000E-01    1.00000000E+00   1.00000000E+00 
SP   1    1.000000
   2.55611000E-01    1.00000000E+00   1.00000000E+00 
SP   1    1.000000
   8.45000000E-02    1.00000000E+00   1.00000000E+00 
SP   1    1.000000
   2.54518072E-02    1.00000000E+00   1.00000000E+00 
D    1    1.000000
   1.29200000E+00    1.00000000E+00 

9    0
S    1    1.000000
   6.29348000E+03    1.96979000E-03 
S    1    1.000000
   9.49044000E+02    1.49613000E-02 
S    1    1.000000
   2.18776000E+02    7.35006000E-02 
S    1    1.000000
   6.36916000E+01    2.48937000E-01 
S    1    1.000000
   1.88282000E+01    6.02460000E-01 
S    1    1.000000
   2.72023000E+00    2.56202000E-01 
SP   3    1.000000
   3.06331000E+01    1.11906000E-01   3.83119000E-02 
   7.02614000E+00    9.21666000E-01   2.37403000E-01 
   2.11205000E+00   -2.56919000E-03   8.17592000E-01 
SP   1    1.000000
   6.84009000E-01    1.00000000E+00   1.00000000E+00 
SP   1    1.000000
   2.00878000E-01    1.00000000E+00   1.00000000E+00 
SP   1    1.000000
   6.39000000E-02    1.00000000E+00   1.00000000E+00 
SP   1    1.000000
   1.92469880E-02    1.00000000E+00   1.00000000E+00 
D    1    1.000000
   9.13000000E-01    1.00000000E+00 

10    0
S    1    1.000000
   6.29348000E+03    1.96979000E-03 
S    1    1.000000
   9.49044000E+02    1.49613000E-02 
S    1    1.000000
   2.18776000E+02    7.35006000E-02 
S    1    1.000000
   6.36916000E+01    2.48937000E-01 
S    1    1.000000
   1.88282000E+01    6.02460000E-01 
S    1    1.000000
   2.72023000E+00    2.56202000E-01 
SP   3    1.000000
   3.06331000E+01    1.11906000E-01   3.83119000E-02 
   7.02614000E+00    9.21666000E-01   2.37403000E-01 
   2.11205000E+00   -2.56919000E-03   8.17592000E-01 
SP   1    1.000000
   6.84009000E-01    1.00000000E+00   1.00000000E+00 
SP   1    1.000000
   2.00878000E-01    1.00000000E+00   1.00000000E+00 
SP   1    1.000000
   6.39000000E-02    1.00000000E+00   1.00000000E+00 
SP   1    1.000000
   1.92469880E-02    1.00000000E+00   1.00000000E+00 
D    1    1.000000
   9.13000000E-01    1.00000000E+00 

11    0
S    1    1.000000
   4.56324000E+03    1.96665000E-03 
S    1    1.000000
   6.82024000E+02    1.52306000E-02 
S    1    1.000000
   1.54973000E+02    7.61269000E-02 
S    1    1.000000
   4.44553000E+01    2.60801000E-01 
S    1    1.000000
   1.30290000E+01    6.16462000E-01 
S    1    1.000000
   1.82773000E+00    2.21006000E-01 
SP   3    1.000000
   2.09642000E+01    1.14660000E-01   4.02487000E-02 
   4.80331000E+00    9.19999000E-01   2.37594000E-01 
   1.45933000E+00   -3.03068000E-03   8.15854000E-01 
SP   1    1.000000
   4.83456000E-01    1.00000000E+00   1.00000000E+00 
SP   1    1.000000
   1.45585000E-01    1.00000000E+00   1.00000000E+00 
SP   1    1.000000
   4.38000000E-02    1.00000000E+00   1.00000000E+00 
SP   1    1.000000
   1.31927711E-02    1.00000000E+00   1.00000000E+00 
D    1    1.000000
   6.26000000E-01    1.00000000E+00 

12    0
S    3    1.000000
   3.38650000E+01    2.54938000E-02 
   5.09479000E+00    1.90373000E-01 
   1.15879000E+00    8.52161000E-01 
S    1    1.000000
   3.25840000E-01    1.00000000E+00 
S    1    1.000000
   1.02741000E-01    1.00000000E+00 
S    1    1.000000
   3.60000000E-02    1.00000000E+00 
P    1    1.000000
   7.50000000E-01    1.00000000E+00 

[MO]
Sym=X
Ene=0.921611
Spin=Alpha
Occup=1
1    2.08277922e-07
2    6.69677459e-07
3    3.74332244e-06
4    -4.32900484e-06
5    -5.03580533e-05
6    3.97878439e-05
7    -1.48349163e-05
8    -2.53741785e-05
9    -7.88254592e-16
10    7.49968367e-05
11    8.31109044e-05
12    0.000121448582
13    -4.91033119e-15
14    0.000415274291
15    -2.79182373e-06
16    0.0003785086
17    1.37822031e-15
18    -0.000253977314
19    0.000223209047
20    -0.000244919841
21    -2.97772063e-14
22    -0.000533705699
23    0.000135805087
24    -0.000286495444
25    -4.53790222e-14
26    6.82349082e-05
27    2.43550847e-16
28    -1.48341022e-05
29    -1.32811722e-15
30    -1.43268652e-05
31    8.14372743e-06
32    -5.03995779e-05
33    0.000165315511
34    2.52845598e-05
35    2.43448137e-06
36    -5.40335168e-07
37    5.09949067e-16
38    -9.87462659e-06
39    0.000116734451
40    3.4576161e-05
41    0.000100937049
42    1.53522125e-05
43    1.39598163e-05
44    -4.72893045e-16
45    4.7829362e-05
46    -0.000131614772
47    0.000377270412
48    0.000144547259
49    -1.05292206e-05
50    -1.21847834e-05
51    -2.22868806e-16
52    -8.43265217e-07
53    -6.47868308e-06
54    -3.26753375e-05
55    -0.000110786446
56    -0.000274597378
57    -0.000147660583
58    -0.000322299783
59    -2.66351106e-05
60    3.14749148e-06
61    1.12598345e-15
62    6.92320899e-05
63    8.69995912e-05
64    -1.30368723e-05
65    4.53247141e-15
66    1.73187503e-05
67    2.11595252e-06
68    -0.000226327568
69    1.14646101e-15
70    0.000128506723
71    0.000123709978
72    -0.000553463652
73    -1.96860118e-14
74    0.00154749008
75    0.000173631212
76    0.000167829501
77    -8.80763272e-15
78    -7.55616538e-06
79    5.26848285e-16
80    -1.25609849e-05
81    -9.00241358e-16
82    6.34269248e-05
83    -5.88970175e-10
84    -6.11077138e-09
85    -1.87428815e-08
86    -1.04986015e-07
87    2.17194352e-07
88    1.9524762e-06
89    -1.65758434e-06
90    -2.86514564e-08
91    -7.07867725e-07
92    1.45865657e-15
93    -4.21154346e-06
94    1.04777068e-05
95    7.56911491e-06
96    2.70985134e-15
97    5.40143477e-05
98    7.19209675e-06
99    2.41047624e-05
100    2.31004335e-15
101    -8.29937293e-06
102    -2.56594162e-05
103    -4.12028446e-05
104    9.04258603e-15
105    0.00198177849
106    0.000492923294
107    0.000197559372
108    -7.16324172e-15
109    6.53121111e-06
110    3.38997043e-16
111    2.55907239e-06
112    3.97217875e-16
113    7.0971622e-06
114    0.00110951712
115    0.0085892368
116    0.0428484557
117    0.147100739
118    0.347531806
119    0.126463182
120    0.46550205
121    0.000456098485
122    0.0014728573
123    -2.416665e-15
124    0.00149620875
125    -0.000215124293
126    -0.00111890953
127    -3.46422263e-15
128    0.00244278847
129    5.60203156e-05
130    0.000817858681
131    -6.28685345e-15
132    -0.000752016367
133    0.00074987083
134    0.00303852087
135    -3.54562277e-14
136    -0.00045548684
137    0.000123162209
138    -0.000460399379
139    5.03484352e-15
140    0.000135434857
141    3.78441347e-16
142    -0.000332465132
143    -8.21895916e-16
144    -0.000235574815
145    -3.73547189e-07
146    -2.68757044e-06
147    -1.44749934e-05
148    -4.49680746e-05
149    -0.0001507113
150    -0.00026569729
151    -0.000155764242
152    -0.000206191439
153    -0.000135956704
154    -9.99390892e-16
155    0.000846440161
156    -0.000787737182
157    -0.000522785542
158    -3.48968392e-15
159    1.04348262e-05
160    0.000157599889
161    5.39762176e-05
162    -4.9731551e-15
163    -0.00206116924
164    0.000408592962
165    0.000106672722
166    3.72896449e-15
167    -0.00582274626
168    0.00123419463
169    0.000199057208
170    -1.1613262e-14
171    0.000322274786
172    3.36127959e-16
173    -0.000166861425
174    3.92551824e-16
175    0.000139585984
176    -2.9164995e-07
177    -2.04720833e-06
178    -1.1386934e-05
179    -3.39000551e-05
180    -0.0001274352
181    -0.000249520247
182    -6.00948246e-05
183    5.52673083e-05
184    -5.14404444e-05
185    -1.11243548e-15
186    0.00058971067
187    0.000635700784
188    -0.000272510983
189    2.70810561e-15
190    -0.000325640802
191    -0.000299099414
192    0.000201645006
193    -7.65107724e-15
194    -0.0013725751
195    -0.000977656866
196    -0.000479795319
197    2.37522069e-14
198    0.000793630964
199    0.00281066614
200    -3.51468901e-05
201    1.26111235e-14
202    -0.000226473221
203    1.50801248e-16
204    -8.97473532e-05
205    -7.76141019e-16
206    0.000203209931
207    2.66455762e-09
208    6.00995717e-08
209    8.52978658e-09
210    1.13201098e-06
211    -7.27960245e-06
212    -3.70688157e-05
213    2.47419076e-05
214    -4.61059551e-06
215    -2.36998974e-06
216    -5.31018682e-16
217    8.90153167e-05
218    1.78518466e-05
219    1.25303726e-05
220    1.70270367e-15
221    -0.000380281936
222    -0.000162616124
223    -9.10252479e-05
224    -3.10198258e-15
225    -0.000688808841
226    0.000223238738
227    -0.000215163091
228    1.17110018e-14
229    0.00092000955
230    -0.000255857802
231    0.000321930409
232    4.54083413e-14
233    -1.10604452e-05
234    8.6831608e-16
235    -4.59222068e-06
236    -5.4460188e-16
237    -6.79942657e-06
238    3.38746518e-06
239    2.60980746e-05
240    0.000131014116
241    0.000446114129
242    0.00108396202
243    0.000466272795
244    0.00131612627
245    -4.94348969e-06
246    0.00012851849
247    -2.3087798e-15
248    0.000112384821
249    7.17462784e-05
250    0.000171166492
251    -4.10011261e-15
252    -0.000495206572
253    0.000306517839
254    -0.000299492092
255    -7.4462368e-15
256    0.00514494906
257    0.000173108051
258    0.00153548685
259    2.51906384e-14
260    -0.00062750351
261    -9.10992326e-05
262    0.000144808559
263    2.48359521e-14
264    5.29726368e-05
265    -3.01631738e-16
266    6.28868886e-05
267    2.52474843e-16
268    -0.000150020565
269    2.36016713e-05
270    3.48246617e-05
271    -0.000278564152
272    0.00021711153
273    -2.76951442e-05
274    6.02522002e-05
275    -1.39347186e-15
[5D]