[Molden Format]
[Atoms] (Angs)
  C      1    6     -0.00714236     -1.70213747     -0.00000000
  H      2    1     -2.06882847     -1.44022412      0.00000000
  H      3    1     -0.12337987     -2.77567521      0.00000000
  H      4    1      0.04651892      1.98813947     -0.00000000
  C      5    6     -1.21953563      0.40211669      0.00000000
  O      6    8     -2.25921553      1.03043814      0.00000000
  C      7    6      1.28797806      0.34644937     -0.00000000
  O      8    8      2.31273661      1.00537216     -0.00000000
  N      9    7      0.03446295      0.97739857     -0.00000000
  N     10    7     -1.17287765     -0.98229824      0.00000000
  C     11    6      1.20107039     -1.10433419     -0.00000000
  H     12    1      2.11220096     -1.67699125     -0.00000000
[GTO]
1    0
S    1    1.000000
   4.56324000E+03    1.96665000E-03 
S    1    1.000000
   6.82024000E+02    1.52306000E-02 
S    1    1.000000
   1.54973000E+02    7.61269000E-02 
S    1    1.000000
   4.44553000E+01    2.60801000E-01 
S    1    1.000000
   1.30290000E+01    6.16462000E-01 
S    1    1.000000
   1.82773000E+00    2.21006000E-01 
SP   3    1.000000
   2.09642000E+01    1.14660000E-01   4.02487000E-02 
   4.80331000E+00    9.19999000E-01   2.37594000E-01 
   1.45933000E+00   -3.03068000E-03   8.15854000E-01 
SP   1    1.000000
   4.83456000E-01    1.00000000E+00   1.00000000E+00 
SP   1    1.000000
   1.45585000E-01    1.00000000E+00   1.00000000E+00 
SP   1    1.000000
   4.38000000E-02    1.00000000E+00   1.00000000E+00 
SP   1    1.000000
   1.31927711E-02    1.00000000E+00   1.00000000E+00 
D    1    1.000000
   6.26000000E-01    1.00000000E+00 

2    0
S    3    1.000000
   3.38650000E+01    2.54938000E-02 
   5.09479000E+00    1.90373000E-01 
   1.15879000E+00    8.52161000E-01 
S    1    1.000000
   3.25840000E-01    1.00000000E+00 
S    1    1.000000
   1.02741000E-01    1.00000000E+00 
S    1    1.000000
   3.60000000E-02    1.00000000E+00 
P    1    1.000000
   7.50000000E-01    1.00000000E+00 

3    0
S    3    1.000000
   3.38650000E+01    2.54938000E-02 
   5.09479000E+00    1.90373000E-01 
   1.15879000E+00    8.52161000E-01 
S    1    1.000000
   3.25840000E-01    1.00000000E+00 
S    1    1.000000
   1.02741000E-01    1.00000000E+00 
S    1    1.000000
   3.60000000E-02    1.00000000E+00 
P    1    1.000000
   7.50000000E-01    1.00000000E+00 

4    0
S    3    1.000000
   3.38650000E+01    2.54938000E-02 
   5.09479000E+00    1.90373000E-01 
   1.15879000E+00    8.52161000E-01 
S    1    1.000000
   3.25840000E-01    1.00000000E+00 
S    1    1.000000
   1.02741000E-01    1.00000000E+00 
S    1    1.000000
   3.60000000E-02    1.00000000E+00 
P    1    1.000000
   7.50000000E-01    1.00000000E+00 

5    0
S    1    1.000000
   4.56324000E+03    1.96665000E-03 
S    1    1.000000
   6.82024000E+02    1.52306000E-02 
S    1    1.000000
   1.54973000E+02    7.61269000E-02 
S    1    1.000000
   4.44553000E+01    2.60801000E-01 
S    1    1.000000
   1.30290000E+01    6.16462000E-01 
S    1    1.000000
   1.82773000E+00    2.21006000E-01 
SP   3    1.000000
   2.09642000E+01    1.14660000E-01   4.02487000E-02 
   4.80331000E+00    9.19999000E-01   2.37594000E-01 
   1.45933000E+00   -3.03068000E-03   8.15854000E-01 
SP   1    1.000000
   4.83456000E-01    1.00000000E+00   1.00000000E+00 
SP   1    1.000000
   1.45585000E-01    1.00000000E+00   1.00000000E+00 
SP   1    1.000000
   4.38000000E-02    1.00000000E+00   1.00000000E+00 
SP   1    1.000000
   1.31927711E-02    1.00000000E+00   1.00000000E+00 
D    1    1.000000
   6.26000000E-01    1.00000000E+00 

6    0
S    1    1.000000
   8.58850000E+03    1.89515000E-03 
S    1    1.000000
   1.29723000E+03    1.43859000E-02 
S    1    1.000000
   2.99296000E+02    7.07320000E-02 
S    1    1.000000
   8.73771000E+01    2.40001000E-01 
S    1    1.000000
   2.56789000E+01    5.94797000E-01 
S    1    1.000000
   3.74004000E+00    2.80802000E-01 
SP   3    1.000000
   4.21175000E+01    1.13889000E-01   3.65114000E-02 
   9.62837000E+00    9.20811000E-01   2.37153000E-01 
   2.85332000E+00   -3.27447000E-03   8.19702000E-01 
SP   1    1.000000
   9.05661000E-01    1.00000000E+00   1.00000000E+00 
SP   1    1.000000
   2.55611000E-01    1.00000000E+00   1.00000000E+00 
SP   1    1.000000
   8.45000000E-02    1.00000000E+00   1.00000000E+00 
SP   1    1.000000
   2.54518072E-02    1.00000000E+00   1.00000000E+00 
D    1    1.000000
   1.29200000E+00    1.00000000E+00 

7    0
S    1    1.000000
   4.56324000E+03    1.96665000E-03 
S    1    1.000000
   6.82024000E+02    1.52306000E-02 
S    1    1.000000
   1.54973000E+02    7.61269000E-02 
S    1    1.000000
   4.44553000E+01    2.60801000E-01 
S    1    1.000000
   1.30290000E+01    6.16462000E-01 
S    1    1.000000
   1.82773000E+00    2.21006000E-01 
SP   3    1.000000
   2.09642000E+01    1.14660000E-01   4.02487000E-02 
   4.80331000E+00    9.19999000E-01   2.37594000E-01 
   1.45933000E+00   -3.03068000E-03   8.15854000E-01 
SP   1    1.000000
   4.83456000E-01    1.00000000E+00   1.00000000E+00 
SP   1    1.000000
   1.45585000E-01    1.00000000E+00   1.00000000E+00 
SP   1    1.000000
   4.38000000E-02    1.00000000E+00   1.00000000E+00 
SP   1    1.000000
   1.31927711E-02    1.00000000E+00   1.00000000E+00 
D    1    1.000000
   6.26000000E-01    1.00000000E+00 

8    0
S    1    1.000000
   8.58850000E+03    1.89515000E-03 
S    1    1.000000
   1.29723000E+03    1.43859000E-02 
S    1    1.000000
   2.99296000E+02    7.07320000E-02 
S    1    1.000000
   8.73771000E+01    2.40001000E-01 
S    1    1.000000
   2.56789000E+01    5.94797000E-01 
S    1    1.000000
   3.74004000E+00    2.80802000E-01 
SP   3    1.000000
   4.21175000E+01    1.13889000E-01   3.65114000E-02 
   9.62837000E+00    9.20811000E-01   2.37153000E-01 
   2.85332000E+00   -3.27447000E-03   8.19702000E-01 
SP   1    1.000000
   9.05661000E-01    1.00000000E+00   1.00000000E+00 
SP   1    1.000000
   2.55611000E-01    1.00000000E+00   1.00000000E+00 
SP   1    1.000000
   8.45000000E-02    1.00000000E+00   1.00000000E+00 
SP   1    1.000000
   2.54518072E-02    1.00000000E+00   1.00000000E+00 
D    1    1.000000
   1.29200000E+00    1.00000000E+00 

9    0
S    1    1.000000
   6.29348000E+03    1.96979000E-03 
S    1    1.000000
   9.49044000E+02    1.49613000E-02 
S    1    1.000000
   2.18776000E+02    7.35006000E-02 
S    1    1.000000
   6.36916000E+01    2.48937000E-01 
S    1    1.000000
   1.88282000E+01    6.02460000E-01 
S    1    1.000000
   2.72023000E+00    2.56202000E-01 
SP   3    1.000000
   3.06331000E+01    1.11906000E-01   3.83119000E-02 
   7.02614000E+00    9.21666000E-01   2.37403000E-01 
   2.11205000E+00   -2.56919000E-03   8.17592000E-01 
SP   1    1.000000
   6.84009000E-01    1.00000000E+00   1.00000000E+00 
SP   1    1.000000
   2.00878000E-01    1.00000000E+00   1.00000000E+00 
SP   1    1.000000
   6.39000000E-02    1.00000000E+00   1.00000000E+00 
SP   1    1.000000
   1.92469880E-02    1.00000000E+00   1.00000000E+00 
D    1    1.000000
   9.13000000E-01    1.00000000E+00 

10    0
S    1    1.000000
   6.29348000E+03    1.96979000E-03 
S    1    1.000000
   9.49044000E+02    1.49613000E-02 
S    1    1.000000
   2.18776000E+02    7.35006000E-02 
S    1    1.000000
   6.36916000E+01    2.48937000E-01 
S    1    1.000000
   1.88282000E+01    6.02460000E-01 
S    1    1.000000
   2.72023000E+00    2.56202000E-01 
SP   3    1.000000
   3.06331000E+01    1.11906000E-01   3.83119000E-02 
   7.02614000E+00    9.21666000E-01   2.37403000E-01 
   2.11205000E+00   -2.56919000E-03   8.17592000E-01 
SP   1    1.000000
   6.84009000E-01    1.00000000E+00   1.00000000E+00 
SP   1    1.000000
   2.00878000E-01    1.00000000E+00   1.00000000E+00 
SP   1    1.000000
   6.39000000E-02    1.00000000E+00   1.00000000E+00 
SP   1    1.000000
   1.92469880E-02    1.00000000E+00   1.00000000E+00 
D    1    1.000000
   9.13000000E-01    1.00000000E+00 

11    0
S    1    1.000000
   4.56324000E+03    1.96665000E-03 
S    1    1.000000
   6.82024000E+02    1.52306000E-02 
S    1    1.000000
   1.54973000E+02    7.61269000E-02 
S    1    1.000000
   4.44553000E+01    2.60801000E-01 
S    1    1.000000
   1.30290000E+01    6.16462000E-01 
S    1    1.000000
   1.82773000E+00    2.21006000E-01 
SP   3    1.000000
   2.09642000E+01    1.14660000E-01   4.02487000E-02 
   4.80331000E+00    9.19999000E-01   2.37594000E-01 
   1.45933000E+00   -3.03068000E-03   8.15854000E-01 
SP   1    1.000000
   4.83456000E-01    1.00000000E+00   1.00000000E+00 
SP   1    1.000000
   1.45585000E-01    1.00000000E+00   1.00000000E+00 
SP   1    1.000000
   4.38000000E-02    1.00000000E+00   1.00000000E+00 
SP   1    1.000000
   1.31927711E-02    1.00000000E+00   1.00000000E+00 
D    1    1.000000
   6.26000000E-01    1.00000000E+00 

12    0
S    3    1.000000
   3.38650000E+01    2.54938000E-02 
   5.09479000E+00    1.90373000E-01 
   1.15879000E+00    8.52161000E-01 
S    1    1.000000
   3.25840000E-01    1.00000000E+00 
S    1    1.000000
   1.02741000E-01    1.00000000E+00 
S    1    1.000000
   3.60000000E-02    1.00000000E+00 
P    1    1.000000
   7.50000000E-01    1.00000000E+00 

[MO]
Sym=X
Ene=0.963619
Spin=Alpha
Occup=1
1    1.94476913e-07
2    1.49787342e-06
3    7.52271485e-06
4    2.56541769e-05
5    6.35409363e-05
6    4.22386986e-05
7    7.13592153e-05
8    -1.44887062e-05
9    6.09612987e-06
10    -3.03535669e-15
11    -5.31167699e-05
12    7.10760451e-05
13    -1.45935578e-05
14    -6.70929142e-15
15    0.000535514875
16    -0.000111814359
17    0.000255895782
18    -5.00910646e-15
19    -0.0028941799
20    -0.000449077604
21    -0.00111843473
22    -2.0723711e-14
23    -0.000305260404
24    0.000248816612
25    -4.13817424e-05
26    -5.95496432e-14
27    5.20156853e-05
28    5.78767294e-17
29    -1.99047436e-05
30    2.18567019e-16
31    -1.46698497e-06
32    -2.90461309e-05
33    -6.92792792e-05
34    1.25287961e-05
35    -0.000231583766
36    -4.39693033e-05
37    -3.74983128e-05
38    -1.52746864e-15
39    -1.26388569e-05
40    4.51660392e-06
41    4.51838751e-05
42    -0.000758997353
43    9.34300676e-06
44    -1.07900436e-05
45    -1.76778995e-15
46    -3.15813722e-05
47    -6.82852271e-05
48    6.27295894e-05
49    0.000188889817
50    -7.02525632e-06
51    4.71922152e-05
52    1.93817781e-15
53    -0.00110956958
54    -0.00858971864
55    -0.0428506393
56    -0.147115575
57    -0.347565952
58    -0.126421319
59    -0.465476793
60    -0.00107275441
61    0.000287564116
62    1.30132128e-15
63    -0.00164274782
64    0.00110154444
65    -0.000363898612
66    5.94476286e-15
67    -0.00119958672
68    -0.000470846378
69    0.000130537882
70    -4.55792578e-15
71    0.000576427048
72    0.000367887782
73    -0.000749870415
74    1.71776802e-14
75    0.000371569904
76    -6.57057186e-05
77    -0.000145827714
78    2.5310853e-14
79    0.000344294106
80    2.2406748e-15
81    0.000227409074
82    1.58659162e-16
83    -0.000117112237
84    3.82146005e-07
85    2.81865288e-06
86    1.46456146e-05
87    4.72266899e-05
88    0.00013701384
89    0.000170934347
90    0.000207135133
91    -0.000212221788
92    0.000131220495
93    1.55380123e-15
94    -0.000565190087
95    -0.000496579661
96    0.000300443615
97    2.29177001e-15
98    0.000324622823
99    0.000260057398
100    -0.00015779811
101    4.80462054e-15
102    -0.000436233154
103    -0.000349751536
104    0.000238837525
105    7.75975139e-16
106    0.000324460919
107    7.2485033e-05
108    -4.76635458e-05
109    -2.58799274e-14
110    0.000227397753
111    -4.04152551e-16
112    0.000109521741
113    2.57239377e-16
114    -0.000124194496
115    -8.36457589e-07
116    -6.49378133e-06
117    -3.22664387e-05
118    -0.000111260929
119    -0.000257415215
120    -6.73703495e-05
121    -0.000366658408
122    -1.68116362e-05
123    3.42244295e-06
124    2.20144393e-15
125    -5.97873171e-05
126    5.13007254e-05
127    -1.35650164e-05
128    2.75287037e-15
129    -5.09697123e-05
130    -0.000581245452
131    -0.000381629659
132    6.25606869e-15
133    -0.00341492881
134    0.000315262648
135    0.00083377288
136    -4.60017136e-14
137    -0.000397953136
138    8.37598007e-05
139    0.0002176056
140    -2.11847427e-14
141    1.35442084e-05
142    1.55298762e-15
143    -5.92409786e-06
144    1.96314331e-16
145    -3.70795094e-05
146    2.42829422e-09
147    -9.81453801e-10
148    1.36317207e-07
149    -6.32828323e-08
150    4.94368577e-06
151    1.93844038e-05
152    -1.02965087e-05
153    -1.83273761e-06
154    -7.78064112e-07
155    1.44683357e-15
156    -5.3287479e-05
157    2.56331689e-05
158    4.5546524e-06
159    3.44955585e-15
160    0.000249137381
161    -0.000109440086
162    -6.87193632e-05
163    4.94435926e-16
164    0.000960416588
165    -0.000307345615
166    -0.000144621303
167    1.02075215e-14
168    0.000440018725
169    -8.33556938e-05
170    -0.000132057193
171    1.01454824e-14
172    2.59929846e-06
173    -1.47398416e-16
174    -2.78407483e-07
175    -4.87253193e-16
176    -4.40038232e-06
177    2.98358104e-07
178    2.11824236e-06
179    1.15974708e-05
180    3.52168586e-05
181    0.000126548438
182    0.000248380256
183    7.36202256e-05
184    6.37955517e-05
185    4.31970273e-05
186    1.92759403e-15
187    -0.000583819027
188    0.000689170786
189    0.000321105973
190    6.0023911e-15
191    -8.94894413e-05
192    -7.1588101e-05
193    0.000134941092
194    9.23127677e-16
195    0.000859339218
196    -0.000734036232
197    -0.000313885036
198    1.82068646e-14
199    0.000529180625
200    -0.000287867151
201    -0.000174730884
202    -1.37355738e-14
203    -0.000253245672
204    -1.9433216e-16
205    0.00012305715
206    -6.44980884e-17
207    -0.000226114982
208    2.93263259e-07
209    2.1069817e-06
210    1.13397356e-05
211    3.50792516e-05
212    0.000118726881
213    0.000212125451
214    8.78255105e-05
215    -4.71084404e-06
216    -8.43872534e-05
217    -1.3692432e-15
218    -0.000519164928
219    2.31404016e-05
220    -0.000681102724
221    -4.09256344e-15
222    1.88710663e-05
223    -0.000166355624
224    0.000180526125
225    7.40314078e-16
226    -0.000195162094
227    -9.62034357e-05
228    6.69203193e-05
229    -1.00967551e-14
230    -0.000520486145
231    2.56198053e-05
232    -0.000406135568
233    2.66234345e-14
234    2.07039791e-05
235    1.24285679e-15
236    9.4339516e-05
237    -6.5373113e-16
238    0.000307830443
239    6.43598633e-08
240    4.74627197e-07
241    2.53780779e-06
242    8.05968347e-06
243    2.54568582e-05
244    3.68661639e-05
245    1.10469695e-05
246    -9.40467362e-06
247    4.13482866e-06
248    -1.9416062e-15
249    -6.26883766e-05
250    7.37927802e-05
251    -2.72998805e-05
252    -2.25663957e-15
253    -0.000398096741
254    0.000220335116
255    -0.000184293709
256    -7.63911481e-15
257    0.00509224491
258    -0.000769498275
259    0.000527551277
260    2.52312895e-14
261    0.00023069375
262    -0.000105171013
263    1.29641925e-05
264    3.29865384e-14
265    -2.31358584e-05
266    1.6428238e-15
267    -1.43974194e-06
268    1.15884398e-15
269    2.57437077e-07
270    -3.939492e-06
271    -7.08707219e-05
272    -6.31215833e-05
273    5.00969829e-05
274    1.67020296e-05
275    -7.78342043e-06
276    -9.75552204e-16
[5D]