[Molden Format]
[Atoms] (Angs)
  C      1    6     -0.00714236     -1.70213747     -0.00000000
  H      2    1     -2.06882847     -1.44022412      0.00000000
  H      3    1     -0.12337987     -2.77567521      0.00000000
  H      4    1      0.04651892      1.98813947     -0.00000000
  C      5    6     -1.21953563      0.40211669      0.00000000
  O      6    8     -2.25921553      1.03043814      0.00000000
  C      7    6      1.28797806      0.34644937     -0.00000000
  O      8    8      2.31273661      1.00537216     -0.00000000
  N      9    7      0.03446295      0.97739857     -0.00000000
  N     10    7     -1.17287765     -0.98229824      0.00000000
  C     11    6      1.20107039     -1.10433419     -0.00000000
  H     12    1      2.11220096     -1.67699125     -0.00000000
[GTO]
1    0
S    1    1.000000
   4.56324000E+03    1.96665000E-03 
S    1    1.000000
   6.82024000E+02    1.52306000E-02 
S    1    1.000000
   1.54973000E+02    7.61269000E-02 
S    1    1.000000
   4.44553000E+01    2.60801000E-01 
S    1    1.000000
   1.30290000E+01    6.16462000E-01 
S    1    1.000000
   1.82773000E+00    2.21006000E-01 
SP   3    1.000000
   2.09642000E+01    1.14660000E-01   4.02487000E-02 
   4.80331000E+00    9.19999000E-01   2.37594000E-01 
   1.45933000E+00   -3.03068000E-03   8.15854000E-01 
SP   1    1.000000
   4.83456000E-01    1.00000000E+00   1.00000000E+00 
SP   1    1.000000
   1.45585000E-01    1.00000000E+00   1.00000000E+00 
SP   1    1.000000
   4.38000000E-02    1.00000000E+00   1.00000000E+00 
SP   1    1.000000
   1.31927711E-02    1.00000000E+00   1.00000000E+00 
D    1    1.000000
   6.26000000E-01    1.00000000E+00 

2    0
S    3    1.000000
   3.38650000E+01    2.54938000E-02 
   5.09479000E+00    1.90373000E-01 
   1.15879000E+00    8.52161000E-01 
S    1    1.000000
   3.25840000E-01    1.00000000E+00 
S    1    1.000000
   1.02741000E-01    1.00000000E+00 
S    1    1.000000
   3.60000000E-02    1.00000000E+00 
P    1    1.000000
   7.50000000E-01    1.00000000E+00 

3    0
S    3    1.000000
   3.38650000E+01    2.54938000E-02 
   5.09479000E+00    1.90373000E-01 
   1.15879000E+00    8.52161000E-01 
S    1    1.000000
   3.25840000E-01    1.00000000E+00 
S    1    1.000000
   1.02741000E-01    1.00000000E+00 
S    1    1.000000
   3.60000000E-02    1.00000000E+00 
P    1    1.000000
   7.50000000E-01    1.00000000E+00 

4    0
S    3    1.000000
   3.38650000E+01    2.54938000E-02 
   5.09479000E+00    1.90373000E-01 
   1.15879000E+00    8.52161000E-01 
S    1    1.000000
   3.25840000E-01    1.00000000E+00 
S    1    1.000000
   1.02741000E-01    1.00000000E+00 
S    1    1.000000
   3.60000000E-02    1.00000000E+00 
P    1    1.000000
   7.50000000E-01    1.00000000E+00 

5    0
S    1    1.000000
   4.56324000E+03    1.96665000E-03 
S    1    1.000000
   6.82024000E+02    1.52306000E-02 
S    1    1.000000
   1.54973000E+02    7.61269000E-02 
S    1    1.000000
   4.44553000E+01    2.60801000E-01 
S    1    1.000000
   1.30290000E+01    6.16462000E-01 
S    1    1.000000
   1.82773000E+00    2.21006000E-01 
SP   3    1.000000
   2.09642000E+01    1.14660000E-01   4.02487000E-02 
   4.80331000E+00    9.19999000E-01   2.37594000E-01 
   1.45933000E+00   -3.03068000E-03   8.15854000E-01 
SP   1    1.000000
   4.83456000E-01    1.00000000E+00   1.00000000E+00 
SP   1    1.000000
   1.45585000E-01    1.00000000E+00   1.00000000E+00 
SP   1    1.000000
   4.38000000E-02    1.00000000E+00   1.00000000E+00 
SP   1    1.000000
   1.31927711E-02    1.00000000E+00   1.00000000E+00 
D    1    1.000000
   6.26000000E-01    1.00000000E+00 

6    0
S    1    1.000000
   8.58850000E+03    1.89515000E-03 
S    1    1.000000
   1.29723000E+03    1.43859000E-02 
S    1    1.000000
   2.99296000E+02    7.07320000E-02 
S    1    1.000000
   8.73771000E+01    2.40001000E-01 
S    1    1.000000
   2.56789000E+01    5.94797000E-01 
S    1    1.000000
   3.74004000E+00    2.80802000E-01 
SP   3    1.000000
   4.21175000E+01    1.13889000E-01   3.65114000E-02 
   9.62837000E+00    9.20811000E-01   2.37153000E-01 
   2.85332000E+00   -3.27447000E-03   8.19702000E-01 
SP   1    1.000000
   9.05661000E-01    1.00000000E+00   1.00000000E+00 
SP   1    1.000000
   2.55611000E-01    1.00000000E+00   1.00000000E+00 
SP   1    1.000000
   8.45000000E-02    1.00000000E+00   1.00000000E+00 
SP   1    1.000000
   2.54518072E-02    1.00000000E+00   1.00000000E+00 
D    1    1.000000
   1.29200000E+00    1.00000000E+00 

7    0
S    1    1.000000
   4.56324000E+03    1.96665000E-03 
S    1    1.000000
   6.82024000E+02    1.52306000E-02 
S    1    1.000000
   1.54973000E+02    7.61269000E-02 
S    1    1.000000
   4.44553000E+01    2.60801000E-01 
S    1    1.000000
   1.30290000E+01    6.16462000E-01 
S    1    1.000000
   1.82773000E+00    2.21006000E-01 
SP   3    1.000000
   2.09642000E+01    1.14660000E-01   4.02487000E-02 
   4.80331000E+00    9.19999000E-01   2.37594000E-01 
   1.45933000E+00   -3.03068000E-03   8.15854000E-01 
SP   1    1.000000
   4.83456000E-01    1.00000000E+00   1.00000000E+00 
SP   1    1.000000
   1.45585000E-01    1.00000000E+00   1.00000000E+00 
SP   1    1.000000
   4.38000000E-02    1.00000000E+00   1.00000000E+00 
SP   1    1.000000
   1.31927711E-02    1.00000000E+00   1.00000000E+00 
D    1    1.000000
   6.26000000E-01    1.00000000E+00 

8    0
S    1    1.000000
   8.58850000E+03    1.89515000E-03 
S    1    1.000000
   1.29723000E+03    1.43859000E-02 
S    1    1.000000
   2.99296000E+02    7.07320000E-02 
S    1    1.000000
   8.73771000E+01    2.40001000E-01 
S    1    1.000000
   2.56789000E+01    5.94797000E-01 
S    1    1.000000
   3.74004000E+00    2.80802000E-01 
SP   3    1.000000
   4.21175000E+01    1.13889000E-01   3.65114000E-02 
   9.62837000E+00    9.20811000E-01   2.37153000E-01 
   2.85332000E+00   -3.27447000E-03   8.19702000E-01 
SP   1    1.000000
   9.05661000E-01    1.00000000E+00   1.00000000E+00 
SP   1    1.000000
   2.55611000E-01    1.00000000E+00   1.00000000E+00 
SP   1    1.000000
   8.45000000E-02    1.00000000E+00   1.00000000E+00 
SP   1    1.000000
   2.54518072E-02    1.00000000E+00   1.00000000E+00 
D    1    1.000000
   1.29200000E+00    1.00000000E+00 

9    0
S    1    1.000000
   6.29348000E+03    1.96979000E-03 
S    1    1.000000
   9.49044000E+02    1.49613000E-02 
S    1    1.000000
   2.18776000E+02    7.35006000E-02 
S    1    1.000000
   6.36916000E+01    2.48937000E-01 
S    1    1.000000
   1.88282000E+01    6.02460000E-01 
S    1    1.000000
   2.72023000E+00    2.56202000E-01 
SP   3    1.000000
   3.06331000E+01    1.11906000E-01   3.83119000E-02 
   7.02614000E+00    9.21666000E-01   2.37403000E-01 
   2.11205000E+00   -2.56919000E-03   8.17592000E-01 
SP   1    1.000000
   6.84009000E-01    1.00000000E+00   1.00000000E+00 
SP   1    1.000000
   2.00878000E-01    1.00000000E+00   1.00000000E+00 
SP   1    1.000000
   6.39000000E-02    1.00000000E+00   1.00000000E+00 
SP   1    1.000000
   1.92469880E-02    1.00000000E+00   1.00000000E+00 
D    1    1.000000
   9.13000000E-01    1.00000000E+00 

10    0
S    1    1.000000
   6.29348000E+03    1.96979000E-03 
S    1    1.000000
   9.49044000E+02    1.49613000E-02 
S    1    1.000000
   2.18776000E+02    7.35006000E-02 
S    1    1.000000
   6.36916000E+01    2.48937000E-01 
S    1    1.000000
   1.88282000E+01    6.02460000E-01 
S    1    1.000000
   2.72023000E+00    2.56202000E-01 
SP   3    1.000000
   3.06331000E+01    1.11906000E-01   3.83119000E-02 
   7.02614000E+00    9.21666000E-01   2.37403000E-01 
   2.11205000E+00   -2.56919000E-03   8.17592000E-01 
SP   1    1.000000
   6.84009000E-01    1.00000000E+00   1.00000000E+00 
SP   1    1.000000
   2.00878000E-01    1.00000000E+00   1.00000000E+00 
SP   1    1.000000
   6.39000000E-02    1.00000000E+00   1.00000000E+00 
SP   1    1.000000
   1.92469880E-02    1.00000000E+00   1.00000000E+00 
D    1    1.000000
   9.13000000E-01    1.00000000E+00 

11    0
S    1    1.000000
   4.56324000E+03    1.96665000E-03 
S    1    1.000000
   6.82024000E+02    1.52306000E-02 
S    1    1.000000
   1.54973000E+02    7.61269000E-02 
S    1    1.000000
   4.44553000E+01    2.60801000E-01 
S    1    1.000000
   1.30290000E+01    6.16462000E-01 
S    1    1.000000
   1.82773000E+00    2.21006000E-01 
SP   3    1.000000
   2.09642000E+01    1.14660000E-01   4.02487000E-02 
   4.80331000E+00    9.19999000E-01   2.37594000E-01 
   1.45933000E+00   -3.03068000E-03   8.15854000E-01 
SP   1    1.000000
   4.83456000E-01    1.00000000E+00   1.00000000E+00 
SP   1    1.000000
   1.45585000E-01    1.00000000E+00   1.00000000E+00 
SP   1    1.000000
   4.38000000E-02    1.00000000E+00   1.00000000E+00 
SP   1    1.000000
   1.31927711E-02    1.00000000E+00   1.00000000E+00 
D    1    1.000000
   6.26000000E-01    1.00000000E+00 

12    0
S    3    1.000000
   3.38650000E+01    2.54938000E-02 
   5.09479000E+00    1.90373000E-01 
   1.15879000E+00    8.52161000E-01 
S    1    1.000000
   3.25840000E-01    1.00000000E+00 
S    1    1.000000
   1.02741000E-01    1.00000000E+00 
S    1    1.000000
   3.60000000E-02    1.00000000E+00 
P    1    1.000000
   7.50000000E-01    1.00000000E+00 

[MO]
Sym=X
Ene=0.949211
Spin=Alpha
Occup=1
1    1.47802519e-05
2    0.00011451156
3    0.000570740736
4    0.00196222707
5    0.00461438308
6    0.00170573155
7    0.00630525679
8    -0.00015352876
9    -6.55596341e-05
10    2.27570326e-15
11    -0.000441365886
12    -0.000483987901
13    -0.000302051574
14    6.22961608e-15
15    0.000940571859
16    0.000196770339
17    0.000687442728
18    5.92870794e-15
19    0.0048990348
20    0.000356633255
21    0.0021154116
22    -5.46298389e-14
23    0.000470891032
24    -0.00019248889
25    0.000344042244
26    7.22842697e-14
27    -0.000289295575
28    3.70149568e-16
29    2.26589098e-05
30    -2.82335651e-16
31    -0.000170581432
32    -7.50546218e-06
33    -5.56730299e-05
34    -9.61121981e-05
35    -0.000334810168
36    -1.37557856e-05
37    1.31580113e-06
38    6.83970309e-16
39    -1.86276688e-05
40    -5.0193081e-05
41    0.000465452908
42    0.00114954422
43    -6.59237871e-05
44    -6.01451232e-05
45    1.77167906e-15
46    -1.50763287e-05
47    1.12292751e-05
48    0.000177342514
49    3.63747675e-06
50    -6.83598589e-06
51    -3.22104051e-06
52    -4.59620895e-16
53    -6.10390714e-08
54    -4.97225835e-07
55    -2.30239496e-06
56    -8.59669153e-06
57    -1.37728317e-05
58    2.06718394e-05
59    -4.15628233e-05
60    6.59515064e-06
61    -3.65599281e-06
62    -1.92839597e-15
63    -6.70820146e-05
64    -2.8398081e-05
65    1.17506846e-05
66    1.6656699e-16
67    0.00039223564
68    0.000370449678
69    -0.000174830719
70    -4.20647158e-15
71    -0.000835600766
72    -0.000142813305
73    0.000345408544
74    -7.96751831e-14
75    -0.00102042154
76    -4.00862455e-05
77    0.000154061016
78    -6.14079806e-14
79    -5.94560206e-06
80    -1.32128514e-15
81    -7.36196744e-06
82    6.81566621e-16
83    -8.97481009e-06
84    5.72766011e-10
85    -3.46758563e-09
86    3.93511471e-08
87    -7.69432102e-08
88    1.87682331e-06
89    7.80955862e-06
90    -4.55781193e-06
91    2.79415468e-06
92    -2.87521248e-07
93    -1.16718362e-15
94    -1.89670182e-05
95    -1.40756953e-05
96    3.45220024e-06
97    -3.03848202e-15
98    7.02980913e-05
99    3.87553984e-05
100    -1.99684947e-05
101    -3.3607524e-15
102    0.000487129536
103    0.000153540869
104    -9.51758586e-05
105    5.17962809e-15
106    -0.000307090825
107    -9.60348075e-05
108    -6.83780722e-05
109    3.00316053e-14
110    4.48971037e-07
111    1.66003048e-16
112    -1.10619552e-06
113    -6.50860979e-16
114    -1.84811364e-06
115    3.74585289e-06
116    2.89469911e-05
117    0.0001448865
118    0.000496255069
119    0.00119176048
120    0.000600537961
121    0.00156276802
122    2.94122951e-08
123    6.99900814e-05
124    3.60512918e-16
125    -0.000618053534
126    4.27587743e-05
127    0.00078225061
128    -3.27431366e-15
129    0.000489234435
130    -0.000220585644
131    -0.0007947918
132    6.33634832e-15
133    0.00291180508
134    -0.000966602912
135    -0.00110195291
136    -7.37196996e-14
137    0.0007141063
138    -3.02507661e-05
139    -2.45276409e-05
140    4.61907203e-14
141    -5.7675619e-05
142    -1.28217139e-15
143    9.29986763e-05
144    -9.50554946e-16
145    0.000417706686
146    -6.42912387e-09
147    -8.49152128e-08
148    -1.62118804e-07
149    -1.5077927e-06
150    6.00895728e-06
151    3.54235454e-05
152    -2.80254125e-05
153    -9.39557341e-06
154    -2.58274379e-05
155    -1.42548602e-15
156    -6.80944495e-05
157    4.87811472e-05
158    5.02528788e-05
159    -1.52068985e-16
160    8.328378e-05
161    -9.46382937e-05
162    1.2713974e-05
163    -4.82573059e-15
164    0.000598440982
165    -6.86800172e-05
166    3.86570585e-06
167    8.5565453e-15
168    0.00133220302
169    -0.000236979951
170    -1.0155585e-05
171    4.11534085e-16
172    -3.29498987e-05
173    -1.35608964e-16
174    1.84645717e-06
175    2.45908415e-16
176    2.47469485e-05
177    -8.52862509e-09
178    -1.19821094e-07
179    -1.9727544e-07
180    -2.17186824e-06
181    8.91242414e-06
182    5.34762468e-05
183    -3.93165218e-05
184    2.56992901e-05
185    -1.40829186e-05
186    -3.16450764e-15
187    -8.81443862e-05
188    -0.000100798672
189    4.39003224e-05
190    3.38218399e-15
191    -0.000109132127
192    0.000208603321
193    2.49583933e-05
194    -2.00246625e-14
195    -0.000314737878
196    0.000248102083
197    -0.000152953892
198    5.88494083e-14
199    -0.000177319913
200    -0.000538497166
201    -2.3673914e-05
202    4.33977962e-14
203    3.77340132e-05
204    -3.93060152e-16
205    3.41045044e-06
206    -3.53932171e-17
207    -1.77270084e-05
208    -1.28713458e-08
209    -1.42860052e-07
210    -3.8319842e-07
211    -2.5343875e-06
212    5.32181151e-06
213    4.03078124e-05
214    -3.492814e-05
215    2.49737936e-05
216    -9.03899787e-06
217    -3.13146685e-16
218    -5.0626758e-05
219    -7.58011698e-05
220    3.44713999e-05
221    7.41696589e-15
222    -0.000263095316
223    -0.000167359299
224    -0.000134677843
225    -9.70808397e-15
226    -0.00112948578
227    -0.000470998108
228    -0.000263816534
229    5.74875172e-14
230    -0.000584120589
231    -0.0001980507
232    -4.20852902e-05
233    1.50561192e-14
234    2.46348529e-05
235    -5.179485e-16
236    7.17927892e-06
237    4.76965533e-16
238    -3.18666078e-05
239    -0.00110901829
240    -0.00858583144
241    -0.0428281054
242    -0.14705699
243    -0.347375776
244    -0.127100637
245    -0.464900972
246    0.000304343267
247    -0.000852751135
248    6.41872472e-16
249    -0.00194434819
250    -8.04494311e-05
251    0.000631523254
252    6.02141975e-15
253    -0.00160235993
254    0.00079573162
255    -0.000880723318
256    -5.51566831e-15
257    -0.00696668531
258    0.00206788392
259    -0.00127149881
260    7.88958532e-14
261    -5.00360319e-05
262    -7.53356044e-05
263    -0.000310204361
264    -7.80290914e-14
265    -4.63493424e-05
266    -1.1853912e-15
267    6.578556e-05
268    -1.04440556e-15
269    -0.000173873645
270    -0.000354530231
271    -0.000316337328
272    -0.000606255419
273    -0.000874547967
274    0.000209597963
275    -0.000122245997
276    9.65649674e-16
[5D]