[Molden Format]
[Atoms] (Angs)
  C      1    6     -0.00714236     -1.70213747     -0.00000000
  H      2    1     -2.06882847     -1.44022412      0.00000000
  H      3    1     -0.12337987     -2.77567521      0.00000000
  H      4    1      0.04651892      1.98813947     -0.00000000
  C      5    6     -1.21953563      0.40211669      0.00000000
  O      6    8     -2.25921553      1.03043814      0.00000000
  C      7    6      1.28797806      0.34644937     -0.00000000
  O      8    8      2.31273661      1.00537216     -0.00000000
  N      9    7      0.03446295      0.97739857     -0.00000000
  N     10    7     -1.17287765     -0.98229824      0.00000000
  C     11    6      1.20107039     -1.10433419     -0.00000000
  H     12    1      2.11220096     -1.67699125     -0.00000000
[GTO]
1    0
S    1    1.000000
   4.56324000E+03    1.96665000E-03 
S    1    1.000000
   6.82024000E+02    1.52306000E-02 
S    1    1.000000
   1.54973000E+02    7.61269000E-02 
S    1    1.000000
   4.44553000E+01    2.60801000E-01 
S    1    1.000000
   1.30290000E+01    6.16462000E-01 
S    1    1.000000
   1.82773000E+00    2.21006000E-01 
SP   3    1.000000
   2.09642000E+01    1.14660000E-01   4.02487000E-02 
   4.80331000E+00    9.19999000E-01   2.37594000E-01 
   1.45933000E+00   -3.03068000E-03   8.15854000E-01 
SP   1    1.000000
   4.83456000E-01    1.00000000E+00   1.00000000E+00 
SP   1    1.000000
   1.45585000E-01    1.00000000E+00   1.00000000E+00 
SP   1    1.000000
   4.38000000E-02    1.00000000E+00   1.00000000E+00 
SP   1    1.000000
   1.31927711E-02    1.00000000E+00   1.00000000E+00 
D    1    1.000000
   6.26000000E-01    1.00000000E+00 

2    0
S    3    1.000000
   3.38650000E+01    2.54938000E-02 
   5.09479000E+00    1.90373000E-01 
   1.15879000E+00    8.52161000E-01 
S    1    1.000000
   3.25840000E-01    1.00000000E+00 
S    1    1.000000
   1.02741000E-01    1.00000000E+00 
S    1    1.000000
   3.60000000E-02    1.00000000E+00 
P    1    1.000000
   7.50000000E-01    1.00000000E+00 

3    0
S    3    1.000000
   3.38650000E+01    2.54938000E-02 
   5.09479000E+00    1.90373000E-01 
   1.15879000E+00    8.52161000E-01 
S    1    1.000000
   3.25840000E-01    1.00000000E+00 
S    1    1.000000
   1.02741000E-01    1.00000000E+00 
S    1    1.000000
   3.60000000E-02    1.00000000E+00 
P    1    1.000000
   7.50000000E-01    1.00000000E+00 

4    0
S    3    1.000000
   3.38650000E+01    2.54938000E-02 
   5.09479000E+00    1.90373000E-01 
   1.15879000E+00    8.52161000E-01 
S    1    1.000000
   3.25840000E-01    1.00000000E+00 
S    1    1.000000
   1.02741000E-01    1.00000000E+00 
S    1    1.000000
   3.60000000E-02    1.00000000E+00 
P    1    1.000000
   7.50000000E-01    1.00000000E+00 

5    0
S    1    1.000000
   4.56324000E+03    1.96665000E-03 
S    1    1.000000
   6.82024000E+02    1.52306000E-02 
S    1    1.000000
   1.54973000E+02    7.61269000E-02 
S    1    1.000000
   4.44553000E+01    2.60801000E-01 
S    1    1.000000
   1.30290000E+01    6.16462000E-01 
S    1    1.000000
   1.82773000E+00    2.21006000E-01 
SP   3    1.000000
   2.09642000E+01    1.14660000E-01   4.02487000E-02 
   4.80331000E+00    9.19999000E-01   2.37594000E-01 
   1.45933000E+00   -3.03068000E-03   8.15854000E-01 
SP   1    1.000000
   4.83456000E-01    1.00000000E+00   1.00000000E+00 
SP   1    1.000000
   1.45585000E-01    1.00000000E+00   1.00000000E+00 
SP   1    1.000000
   4.38000000E-02    1.00000000E+00   1.00000000E+00 
SP   1    1.000000
   1.31927711E-02    1.00000000E+00   1.00000000E+00 
D    1    1.000000
   6.26000000E-01    1.00000000E+00 

6    0
S    1    1.000000
   8.58850000E+03    1.89515000E-03 
S    1    1.000000
   1.29723000E+03    1.43859000E-02 
S    1    1.000000
   2.99296000E+02    7.07320000E-02 
S    1    1.000000
   8.73771000E+01    2.40001000E-01 
S    1    1.000000
   2.56789000E+01    5.94797000E-01 
S    1    1.000000
   3.74004000E+00    2.80802000E-01 
SP   3    1.000000
   4.21175000E+01    1.13889000E-01   3.65114000E-02 
   9.62837000E+00    9.20811000E-01   2.37153000E-01 
   2.85332000E+00   -3.27447000E-03   8.19702000E-01 
SP   1    1.000000
   9.05661000E-01    1.00000000E+00   1.00000000E+00 
SP   1    1.000000
   2.55611000E-01    1.00000000E+00   1.00000000E+00 
SP   1    1.000000
   8.45000000E-02    1.00000000E+00   1.00000000E+00 
SP   1    1.000000
   2.54518072E-02    1.00000000E+00   1.00000000E+00 
D    1    1.000000
   1.29200000E+00    1.00000000E+00 

7    0
S    1    1.000000
   4.56324000E+03    1.96665000E-03 
S    1    1.000000
   6.82024000E+02    1.52306000E-02 
S    1    1.000000
   1.54973000E+02    7.61269000E-02 
S    1    1.000000
   4.44553000E+01    2.60801000E-01 
S    1    1.000000
   1.30290000E+01    6.16462000E-01 
S    1    1.000000
   1.82773000E+00    2.21006000E-01 
SP   3    1.000000
   2.09642000E+01    1.14660000E-01   4.02487000E-02 
   4.80331000E+00    9.19999000E-01   2.37594000E-01 
   1.45933000E+00   -3.03068000E-03   8.15854000E-01 
SP   1    1.000000
   4.83456000E-01    1.00000000E+00   1.00000000E+00 
SP   1    1.000000
   1.45585000E-01    1.00000000E+00   1.00000000E+00 
SP   1    1.000000
   4.38000000E-02    1.00000000E+00   1.00000000E+00 
SP   1    1.000000
   1.31927711E-02    1.00000000E+00   1.00000000E+00 
D    1    1.000000
   6.26000000E-01    1.00000000E+00 

8    0
S    1    1.000000
   8.58850000E+03    1.89515000E-03 
S    1    1.000000
   1.29723000E+03    1.43859000E-02 
S    1    1.000000
   2.99296000E+02    7.07320000E-02 
S    1    1.000000
   8.73771000E+01    2.40001000E-01 
S    1    1.000000
   2.56789000E+01    5.94797000E-01 
S    1    1.000000
   3.74004000E+00    2.80802000E-01 
SP   3    1.000000
   4.21175000E+01    1.13889000E-01   3.65114000E-02 
   9.62837000E+00    9.20811000E-01   2.37153000E-01 
   2.85332000E+00   -3.27447000E-03   8.19702000E-01 
SP   1    1.000000
   9.05661000E-01    1.00000000E+00   1.00000000E+00 
SP   1    1.000000
   2.55611000E-01    1.00000000E+00   1.00000000E+00 
SP   1    1.000000
   8.45000000E-02    1.00000000E+00   1.00000000E+00 
SP   1    1.000000
   2.54518072E-02    1.00000000E+00   1.00000000E+00 
D    1    1.000000
   1.29200000E+00    1.00000000E+00 

9    0
S    1    1.000000
   6.29348000E+03    1.96979000E-03 
S    1    1.000000
   9.49044000E+02    1.49613000E-02 
S    1    1.000000
   2.18776000E+02    7.35006000E-02 
S    1    1.000000
   6.36916000E+01    2.48937000E-01 
S    1    1.000000
   1.88282000E+01    6.02460000E-01 
S    1    1.000000
   2.72023000E+00    2.56202000E-01 
SP   3    1.000000
   3.06331000E+01    1.11906000E-01   3.83119000E-02 
   7.02614000E+00    9.21666000E-01   2.37403000E-01 
   2.11205000E+00   -2.56919000E-03   8.17592000E-01 
SP   1    1.000000
   6.84009000E-01    1.00000000E+00   1.00000000E+00 
SP   1    1.000000
   2.00878000E-01    1.00000000E+00   1.00000000E+00 
SP   1    1.000000
   6.39000000E-02    1.00000000E+00   1.00000000E+00 
SP   1    1.000000
   1.92469880E-02    1.00000000E+00   1.00000000E+00 
D    1    1.000000
   9.13000000E-01    1.00000000E+00 

10    0
S    1    1.000000
   6.29348000E+03    1.96979000E-03 
S    1    1.000000
   9.49044000E+02    1.49613000E-02 
S    1    1.000000
   2.18776000E+02    7.35006000E-02 
S    1    1.000000
   6.36916000E+01    2.48937000E-01 
S    1    1.000000
   1.88282000E+01    6.02460000E-01 
S    1    1.000000
   2.72023000E+00    2.56202000E-01 
SP   3    1.000000
   3.06331000E+01    1.11906000E-01   3.83119000E-02 
   7.02614000E+00    9.21666000E-01   2.37403000E-01 
   2.11205000E+00   -2.56919000E-03   8.17592000E-01 
SP   1    1.000000
   6.84009000E-01    1.00000000E+00   1.00000000E+00 
SP   1    1.000000
   2.00878000E-01    1.00000000E+00   1.00000000E+00 
SP   1    1.000000
   6.39000000E-02    1.00000000E+00   1.00000000E+00 
SP   1    1.000000
   1.92469880E-02    1.00000000E+00   1.00000000E+00 
D    1    1.000000
   9.13000000E-01    1.00000000E+00 

11    0
S    1    1.000000
   4.56324000E+03    1.96665000E-03 
S    1    1.000000
   6.82024000E+02    1.52306000E-02 
S    1    1.000000
   1.54973000E+02    7.61269000E-02 
S    1    1.000000
   4.44553000E+01    2.60801000E-01 
S    1    1.000000
   1.30290000E+01    6.16462000E-01 
S    1    1.000000
   1.82773000E+00    2.21006000E-01 
SP   3    1.000000
   2.09642000E+01    1.14660000E-01   4.02487000E-02 
   4.80331000E+00    9.19999000E-01   2.37594000E-01 
   1.45933000E+00   -3.03068000E-03   8.15854000E-01 
SP   1    1.000000
   4.83456000E-01    1.00000000E+00   1.00000000E+00 
SP   1    1.000000
   1.45585000E-01    1.00000000E+00   1.00000000E+00 
SP   1    1.000000
   4.38000000E-02    1.00000000E+00   1.00000000E+00 
SP   1    1.000000
   1.31927711E-02    1.00000000E+00   1.00000000E+00 
D    1    1.000000
   6.26000000E-01    1.00000000E+00 

12    0
S    3    1.000000
   3.38650000E+01    2.54938000E-02 
   5.09479000E+00    1.90373000E-01 
   1.15879000E+00    8.52161000E-01 
S    1    1.000000
   3.25840000E-01    1.00000000E+00 
S    1    1.000000
   1.02741000E-01    1.00000000E+00 
S    1    1.000000
   3.60000000E-02    1.00000000E+00 
P    1    1.000000
   7.50000000E-01    1.00000000E+00 

[MO]
Sym=X
Ene=0.95495
Spin=Alpha
Occup=1
1    -0.00110932726
2    -0.00858794011
3    -0.0428407115
4    -0.147083073
5    -0.347470854
6    -0.126607539
7    -0.465324754
8    0.000778328809
9    -0.000684017322
10    -1.1835288e-16
11    -0.00157799228
12    -0.000730585115
13    0.000450565789
14    -4.05063659e-15
15    -0.00135988591
16    0.000175208077
17    -0.0010428921
18    6.5423865e-15
19    -0.00142171879
20    0.000451497354
21    -0.00110634278
22    -9.21325382e-14
23    0.000219383759
24    -0.000148915791
25    5.80292735e-05
26    5.77893087e-14
27    -0.000299672164
28    1.01624148e-15
29    0.00034701043
30    -2.57302286e-16
31    2.750919e-05
32    -2.51239963e-05
33    -0.000114241625
34    0.000120710434
35    0.000251482322
36    -6.00661655e-05
37    -1.54639667e-05
38    1.82413338e-16
39    -0.000347929319
40    -0.000292889173
41    -0.000560506793
42    -0.000358846549
43    -3.98549873e-05
44    -0.000226526216
45    -9.2242241e-16
46    -1.46339277e-05
47    6.82153615e-05
48    -0.000284382557
49    -0.000311182814
50    -5.83275962e-06
51    -6.91518274e-06
52    1.43091964e-15
53    -2.15003936e-07
54    -1.69224904e-06
55    -8.24609588e-06
56    -2.90441461e-05
57    -6.03004291e-05
58    2.00823951e-05
59    -0.00011357333
60    3.37938157e-06
61    -1.90819096e-05
62    1.16519666e-15
63    -0.000110188182
64    -1.25924218e-05
65    7.00233876e-05
66    6.09929965e-15
67    -0.000183389389
68    0.000720566586
69    -0.000433630453
70    1.65580186e-15
71    -0.000476347985
72    0.000374346524
73    -0.000723739484
74    -1.00254536e-13
75    -0.000652574598
76    -0.000167449345
77    1.59413236e-05
78    -8.59147127e-14
79    1.30379193e-05
80    8.4822177e-16
81    -7.15731638e-06
82    7.80348467e-16
83    4.07866925e-05
84    2.65110775e-09
85    -8.20345365e-09
86    1.64980928e-07
87    -2.05704909e-07
88    6.94901259e-06
89    2.82362751e-05
90    -1.57512001e-05
91    4.32174165e-06
92    -1.97876433e-06
93    7.46458947e-16
94    -7.67140684e-05
95    -2.79249163e-05
96    2.71709527e-05
97    2.43697604e-15
98    0.000343136341
99    0.000169485517
100    -9.9852961e-05
101    -1.54338124e-15
102    0.00107141252
103    0.000168107043
104    -0.000117400519
105    1.20046711e-14
106    0.00135018908
107    0.000296279438
108    -2.61852589e-05
109    2.51387245e-14
110    1.77036914e-06
111    4.42495197e-16
112    -7.68612501e-07
113    2.67103778e-16
114    5.18262712e-06
115    6.47919398e-08
116    4.48655364e-07
117    2.61974106e-06
118    7.52145393e-06
119    3.19924304e-05
120    7.00611702e-05
121    -7.89808075e-06
122    -5.01398546e-06
123    -2.60686582e-05
124    1.69580548e-15
125    -0.000120559821
126    2.99881715e-05
127    0.000140643126
128    2.94710627e-15
129    -0.000187496106
130    9.11826333e-05
131    6.15874954e-05
132    7.52936845e-15
133    -4.73583044e-05
134    -0.000328974659
135    -0.00031272499
136    -1.0366177e-13
137    -3.88383123e-05
138    -0.000147529799
139    5.53062101e-05
140    2.64812482e-14
141    -3.45171972e-05
142    1.14521502e-15
143    2.7898644e-06
144    -4.94673043e-16
145    6.61917865e-05
146    7.49146646e-10
147    1.65718303e-09
148    3.77759741e-08
149    1.73149735e-08
150    1.07427342e-06
151    3.77764989e-06
152    -1.78582642e-06
153    -1.5238057e-06
154    -3.65158034e-06
155    3.97700228e-16
156    -6.22405243e-06
157    1.36341071e-05
158    2.58875171e-05
159    4.45616314e-15
160    -6.20489794e-05
161    -2.18234908e-05
162    -1.67771424e-05
163    -5.29079125e-15
164    0.000223295081
165    -1.24876862e-06
166    6.63087638e-06
167    2.00757442e-14
168    0.000121593853
169    -3.89593189e-05
170    5.26224622e-05
171    -7.32720091e-15
172    -5.38190372e-06
173    -6.19898499e-17
174    1.33253626e-06
175    -1.23983399e-16
176    6.7998882e-06
177    -2.48678035e-09
178    -6.19283121e-08
179    4.96629061e-09
180    -1.17366194e-06
181    7.99991764e-06
182    3.9840084e-05
183    -2.67955195e-05
184    9.50541272e-07
185    -8.46737637e-06
186    7.99075233e-16
187    -7.42918923e-05
188    2.85267671e-07
189    3.29327738e-05
190    9.7253871e-15
191    -8.29886973e-05
192    5.29397298e-05
193    -9.04956711e-06
194    -1.33219392e-14
195    -0.000309663441
196    -0.000130205371
197    0.000724099915
198    7.17843885e-14
199    -0.000815922932
200    0.000266376816
201    0.000143768388
202    6.44595477e-14
203    -3.86931557e-06
204    7.25186967e-17
205    2.5005442e-06
206    -1.90399985e-18
207    -5.60566926e-06
208    3.25179729e-07
209    2.31967998e-06
210    1.26122523e-05
211    3.85989868e-05
212    0.000135696183
213    0.000262280391
214    8.54803124e-05
215    -7.06137012e-05
216    4.42863451e-05
217    -2.82978955e-15
218    -0.000628641533
219    -0.000715287037
220    0.000422730012
221    7.36015859e-15
222    5.38611154e-05
223    -4.48977484e-05
224    -0.000120863516
225    -2.15486524e-14
226    0.0010848408
227    0.000614103761
228    -0.000120943151
229    7.02810427e-14
230    0.000295246708
231    0.000255909057
232    6.85562239e-05
233    2.30358389e-14
234    0.00032163965
235    9.23498453e-16
236    0.000114310433
237    -2.67113059e-16
238    -0.000182892566
239    -1.4295408e-05
240    -0.000110553018
241    -0.000552187997
242    -0.00189245165
243    -0.00449973302
244    -0.00166526252
245    -0.00586993164
246    0.000145340864
247    5.61012781e-05
248    -7.07510557e-16
249    -0.000341787078
250    0.000411864253
251    0.000185459139
252    1.97872166e-15
253    0.000812314977
254    -0.000597512029
255    0.0002176223
256    -1.18929226e-14
257    -0.000247900443
258    -0.000272543958
259    0.000804507859
260    9.6850967e-14
261    0.000422592819
262    8.54712198e-05
263    6.79523607e-05
264    -7.36418057e-14
265    -0.000215768407
266    6.23635515e-16
267    -9.76644805e-06
268    6.04539929e-16
269    -0.000203160014
270    -3.33390693e-05
271    -5.84532046e-05
272    0.000387569794
273    0.000486256721
274    9.69646826e-05
275    9.94568026e-06
276    -1.69015648e-17
[5D]