[Molden Format]
[Atoms] (Angs)
  C      1    6     -0.00714236     -1.70213747     -0.00000000
  H      2    1     -2.06882847     -1.44022412      0.00000000
  H      3    1     -0.12337987     -2.77567521      0.00000000
  H      4    1      0.04651892      1.98813947     -0.00000000
  C      5    6     -1.21953563      0.40211669      0.00000000
  O      6    8     -2.25921553      1.03043814      0.00000000
  C      7    6      1.28797806      0.34644937     -0.00000000
  O      8    8      2.31273661      1.00537216     -0.00000000
  N      9    7      0.03446295      0.97739857     -0.00000000
  N     10    7     -1.17287765     -0.98229824      0.00000000
  C     11    6      1.20107039     -1.10433419     -0.00000000
  H     12    1      2.11220096     -1.67699125     -0.00000000
[GTO]
1    0
S    1    1.000000
   4.56324000E+03    1.96665000E-03 
S    1    1.000000
   6.82024000E+02    1.52306000E-02 
S    1    1.000000
   1.54973000E+02    7.61269000E-02 
S    1    1.000000
   4.44553000E+01    2.60801000E-01 
S    1    1.000000
   1.30290000E+01    6.16462000E-01 
S    1    1.000000
   1.82773000E+00    2.21006000E-01 
SP   3    1.000000
   2.09642000E+01    1.14660000E-01   4.02487000E-02 
   4.80331000E+00    9.19999000E-01   2.37594000E-01 
   1.45933000E+00   -3.03068000E-03   8.15854000E-01 
SP   1    1.000000
   4.83456000E-01    1.00000000E+00   1.00000000E+00 
SP   1    1.000000
   1.45585000E-01    1.00000000E+00   1.00000000E+00 
SP   1    1.000000
   4.38000000E-02    1.00000000E+00   1.00000000E+00 
SP   1    1.000000
   1.31927711E-02    1.00000000E+00   1.00000000E+00 
D    1    1.000000
   6.26000000E-01    1.00000000E+00 

2    0
S    3    1.000000
   3.38650000E+01    2.54938000E-02 
   5.09479000E+00    1.90373000E-01 
   1.15879000E+00    8.52161000E-01 
S    1    1.000000
   3.25840000E-01    1.00000000E+00 
S    1    1.000000
   1.02741000E-01    1.00000000E+00 
S    1    1.000000
   3.60000000E-02    1.00000000E+00 
P    1    1.000000
   7.50000000E-01    1.00000000E+00 

3    0
S    3    1.000000
   3.38650000E+01    2.54938000E-02 
   5.09479000E+00    1.90373000E-01 
   1.15879000E+00    8.52161000E-01 
S    1    1.000000
   3.25840000E-01    1.00000000E+00 
S    1    1.000000
   1.02741000E-01    1.00000000E+00 
S    1    1.000000
   3.60000000E-02    1.00000000E+00 
P    1    1.000000
   7.50000000E-01    1.00000000E+00 

4    0
S    3    1.000000
   3.38650000E+01    2.54938000E-02 
   5.09479000E+00    1.90373000E-01 
   1.15879000E+00    8.52161000E-01 
S    1    1.000000
   3.25840000E-01    1.00000000E+00 
S    1    1.000000
   1.02741000E-01    1.00000000E+00 
S    1    1.000000
   3.60000000E-02    1.00000000E+00 
P    1    1.000000
   7.50000000E-01    1.00000000E+00 

5    0
S    1    1.000000
   4.56324000E+03    1.96665000E-03 
S    1    1.000000
   6.82024000E+02    1.52306000E-02 
S    1    1.000000
   1.54973000E+02    7.61269000E-02 
S    1    1.000000
   4.44553000E+01    2.60801000E-01 
S    1    1.000000
   1.30290000E+01    6.16462000E-01 
S    1    1.000000
   1.82773000E+00    2.21006000E-01 
SP   3    1.000000
   2.09642000E+01    1.14660000E-01   4.02487000E-02 
   4.80331000E+00    9.19999000E-01   2.37594000E-01 
   1.45933000E+00   -3.03068000E-03   8.15854000E-01 
SP   1    1.000000
   4.83456000E-01    1.00000000E+00   1.00000000E+00 
SP   1    1.000000
   1.45585000E-01    1.00000000E+00   1.00000000E+00 
SP   1    1.000000
   4.38000000E-02    1.00000000E+00   1.00000000E+00 
SP   1    1.000000
   1.31927711E-02    1.00000000E+00   1.00000000E+00 
D    1    1.000000
   6.26000000E-01    1.00000000E+00 

6    0
S    1    1.000000
   8.58850000E+03    1.89515000E-03 
S    1    1.000000
   1.29723000E+03    1.43859000E-02 
S    1    1.000000
   2.99296000E+02    7.07320000E-02 
S    1    1.000000
   8.73771000E+01    2.40001000E-01 
S    1    1.000000
   2.56789000E+01    5.94797000E-01 
S    1    1.000000
   3.74004000E+00    2.80802000E-01 
SP   3    1.000000
   4.21175000E+01    1.13889000E-01   3.65114000E-02 
   9.62837000E+00    9.20811000E-01   2.37153000E-01 
   2.85332000E+00   -3.27447000E-03   8.19702000E-01 
SP   1    1.000000
   9.05661000E-01    1.00000000E+00   1.00000000E+00 
SP   1    1.000000
   2.55611000E-01    1.00000000E+00   1.00000000E+00 
SP   1    1.000000
   8.45000000E-02    1.00000000E+00   1.00000000E+00 
SP   1    1.000000
   2.54518072E-02    1.00000000E+00   1.00000000E+00 
D    1    1.000000
   1.29200000E+00    1.00000000E+00 

7    0
S    1    1.000000
   4.56324000E+03    1.96665000E-03 
S    1    1.000000
   6.82024000E+02    1.52306000E-02 
S    1    1.000000
   1.54973000E+02    7.61269000E-02 
S    1    1.000000
   4.44553000E+01    2.60801000E-01 
S    1    1.000000
   1.30290000E+01    6.16462000E-01 
S    1    1.000000
   1.82773000E+00    2.21006000E-01 
SP   3    1.000000
   2.09642000E+01    1.14660000E-01   4.02487000E-02 
   4.80331000E+00    9.19999000E-01   2.37594000E-01 
   1.45933000E+00   -3.03068000E-03   8.15854000E-01 
SP   1    1.000000
   4.83456000E-01    1.00000000E+00   1.00000000E+00 
SP   1    1.000000
   1.45585000E-01    1.00000000E+00   1.00000000E+00 
SP   1    1.000000
   4.38000000E-02    1.00000000E+00   1.00000000E+00 
SP   1    1.000000
   1.31927711E-02    1.00000000E+00   1.00000000E+00 
D    1    1.000000
   6.26000000E-01    1.00000000E+00 

8    0
S    1    1.000000
   8.58850000E+03    1.89515000E-03 
S    1    1.000000
   1.29723000E+03    1.43859000E-02 
S    1    1.000000
   2.99296000E+02    7.07320000E-02 
S    1    1.000000
   8.73771000E+01    2.40001000E-01 
S    1    1.000000
   2.56789000E+01    5.94797000E-01 
S    1    1.000000
   3.74004000E+00    2.80802000E-01 
SP   3    1.000000
   4.21175000E+01    1.13889000E-01   3.65114000E-02 
   9.62837000E+00    9.20811000E-01   2.37153000E-01 
   2.85332000E+00   -3.27447000E-03   8.19702000E-01 
SP   1    1.000000
   9.05661000E-01    1.00000000E+00   1.00000000E+00 
SP   1    1.000000
   2.55611000E-01    1.00000000E+00   1.00000000E+00 
SP   1    1.000000
   8.45000000E-02    1.00000000E+00   1.00000000E+00 
SP   1    1.000000
   2.54518072E-02    1.00000000E+00   1.00000000E+00 
D    1    1.000000
   1.29200000E+00    1.00000000E+00 

9    0
S    1    1.000000
   6.29348000E+03    1.96979000E-03 
S    1    1.000000
   9.49044000E+02    1.49613000E-02 
S    1    1.000000
   2.18776000E+02    7.35006000E-02 
S    1    1.000000
   6.36916000E+01    2.48937000E-01 
S    1    1.000000
   1.88282000E+01    6.02460000E-01 
S    1    1.000000
   2.72023000E+00    2.56202000E-01 
SP   3    1.000000
   3.06331000E+01    1.11906000E-01   3.83119000E-02 
   7.02614000E+00    9.21666000E-01   2.37403000E-01 
   2.11205000E+00   -2.56919000E-03   8.17592000E-01 
SP   1    1.000000
   6.84009000E-01    1.00000000E+00   1.00000000E+00 
SP   1    1.000000
   2.00878000E-01    1.00000000E+00   1.00000000E+00 
SP   1    1.000000
   6.39000000E-02    1.00000000E+00   1.00000000E+00 
SP   1    1.000000
   1.92469880E-02    1.00000000E+00   1.00000000E+00 
D    1    1.000000
   9.13000000E-01    1.00000000E+00 

10    0
S    1    1.000000
   6.29348000E+03    1.96979000E-03 
S    1    1.000000
   9.49044000E+02    1.49613000E-02 
S    1    1.000000
   2.18776000E+02    7.35006000E-02 
S    1    1.000000
   6.36916000E+01    2.48937000E-01 
S    1    1.000000
   1.88282000E+01    6.02460000E-01 
S    1    1.000000
   2.72023000E+00    2.56202000E-01 
SP   3    1.000000
   3.06331000E+01    1.11906000E-01   3.83119000E-02 
   7.02614000E+00    9.21666000E-01   2.37403000E-01 
   2.11205000E+00   -2.56919000E-03   8.17592000E-01 
SP   1    1.000000
   6.84009000E-01    1.00000000E+00   1.00000000E+00 
SP   1    1.000000
   2.00878000E-01    1.00000000E+00   1.00000000E+00 
SP   1    1.000000
   6.39000000E-02    1.00000000E+00   1.00000000E+00 
SP   1    1.000000
   1.92469880E-02    1.00000000E+00   1.00000000E+00 
D    1    1.000000
   9.13000000E-01    1.00000000E+00 

11    0
S    1    1.000000
   4.56324000E+03    1.96665000E-03 
S    1    1.000000
   6.82024000E+02    1.52306000E-02 
S    1    1.000000
   1.54973000E+02    7.61269000E-02 
S    1    1.000000
   4.44553000E+01    2.60801000E-01 
S    1    1.000000
   1.30290000E+01    6.16462000E-01 
S    1    1.000000
   1.82773000E+00    2.21006000E-01 
SP   3    1.000000
   2.09642000E+01    1.14660000E-01   4.02487000E-02 
   4.80331000E+00    9.19999000E-01   2.37594000E-01 
   1.45933000E+00   -3.03068000E-03   8.15854000E-01 
SP   1    1.000000
   4.83456000E-01    1.00000000E+00   1.00000000E+00 
SP   1    1.000000
   1.45585000E-01    1.00000000E+00   1.00000000E+00 
SP   1    1.000000
   4.38000000E-02    1.00000000E+00   1.00000000E+00 
SP   1    1.000000
   1.31927711E-02    1.00000000E+00   1.00000000E+00 
D    1    1.000000
   6.26000000E-01    1.00000000E+00 

12    0
S    3    1.000000
   3.38650000E+01    2.54938000E-02 
   5.09479000E+00    1.90373000E-01 
   1.15879000E+00    8.52161000E-01 
S    1    1.000000
   3.25840000E-01    1.00000000E+00 
S    1    1.000000
   1.02741000E-01    1.00000000E+00 
S    1    1.000000
   3.60000000E-02    1.00000000E+00 
P    1    1.000000
   7.50000000E-01    1.00000000E+00 

[MO]
Sym=X
Ene=0.958896
Spin=Alpha
Occup=1
1    1.62193541e-08
2    1.76603057e-07
3    5.11633308e-07
4    3.20090754e-06
5    -5.6118951e-06
6    -5.08238501e-05
7    3.80785737e-05
8    -1.48419921e-05
9    -2.53818789e-05
10    -7.88105819e-16
11    7.49590874e-05
12    8.30742375e-05
13    0.000121429873
14    -4.90993447e-15
15    0.000415334422
16    -2.77784113e-06
17    0.000378551948
18    1.37864197e-15
19    -0.000253647674
20    0.000223234603
21    -0.000244778801
22    -2.97813963e-14
23    -0.000533672441
24    0.000135790486
25    -0.000286470608
26    -4.53739878e-14
27    6.82136305e-05
28    2.43581758e-16
29    -1.48309986e-05
30    -1.32813706e-15
31    -1.43385266e-05
32    8.14306878e-06
33    -5.04041983e-05
34    0.000165308927
35    2.52610827e-05
36    2.43315797e-06
37    -5.40401316e-07
38    5.0999259e-16
39    -9.87753613e-06
40    0.000116729644
41    3.46059499e-05
42    0.000101015117
43    1.53474945e-05
44    1.39545969e-05
45    -4.7277881e-16
46    4.78289284e-05
47    -0.000131613488
48    0.00037728248
49    0.000144547293
50    -1.05297338e-05
51    -1.21852749e-05
52    -2.22886481e-16
53    -8.45614048e-07
54    -6.49686836e-06
55    -3.27660435e-05
56    -0.000111097911
57    -0.000275332743
58    -0.000147926193
59    -0.000323286407
60    -2.66367261e-05
61    3.14784447e-06
62    1.125861e-15
63    6.92242792e-05
64    8.70005764e-05
65    -1.3036246e-05
66    4.53252253e-15
67    1.73416728e-05
68    2.14379447e-06
69    -0.000226341282
70    1.14617594e-15
71    0.000128443195
72    0.00012370085
73    -0.000553444019
74    -1.96919231e-14
75    0.00154741389
76    0.000173627271
77    0.000167841051
78    -8.81217891e-15
79    -7.55553353e-06
80    5.26767224e-16
81    -1.25610583e-05
82    -9.00188838e-16
83    6.3426604e-05
84    -5.79482897e-10
85    -6.03943393e-09
86    -1.83866801e-08
87    -1.03796731e-07
88    2.20351223e-07
89    1.95477215e-06
90    -1.6536204e-06
91    -2.89157693e-08
92    -7.07641835e-07
93    1.45858449e-15
94    -4.21435386e-06
95    1.04756149e-05
96    7.57011137e-06
97    2.70965733e-15
98    5.40216219e-05
99    7.19611771e-06
100    2.41025688e-05
101    2.30981668e-15
102    -8.26199687e-06
103    -2.56487586e-05
104    -4.12094525e-05
105    9.04300109e-15
106    0.00198176312
107    0.00049291829
108    0.000197554541
109    -7.16111097e-15
110    6.53174271e-06
111    3.39009722e-16
112    2.55920918e-06
113    3.97175968e-16
114    7.09685033e-06
115    0.00110951737
116    0.00858923873
117    0.0428484654
118    0.147100772
119    0.347531885
120    0.126463223
121    0.465502154
122    0.000456098327
123    0.0014728621
124    -2.41662674e-15
125    0.0014961663
126    -0.000215121863
127    -0.00111885411
128    -3.46441566e-15
129    0.0024428204
130    5.60049586e-05
131    0.000817802662
132    -6.28637432e-15
133    -0.000751827218
134    0.00074980465
135    0.00303844605
136    -3.54617669e-14
137    -0.000455437859
138    0.000123160439
139    -0.000460400368
140    5.03815385e-15
141    0.000135430331
142    3.78362503e-16
143    -0.000332458762
144    -8.21963414e-16
145    -0.000235545198
146    -3.73239174e-07
147    -2.68522984e-06
148    -1.44634994e-05
149    -4.49290248e-05
150    -0.000150613985
151    -0.000265648617
152    -0.000155627002
153    -0.000206192536
154    -0.000135958829
155    -9.99481872e-16
156    0.000846437117
157    -0.000787733597
158    -0.000522781844
159    -3.48966351e-15
160    1.04405284e-05
161    0.000157593019
162    5.39769393e-05
163    -4.9734978e-15
164    -0.0020611246
165    0.000408587389
166    0.000106672698
167    3.72965309e-15
168    -0.00582265416
169    0.00123417801
170    0.000199056473
171    -1.16132795e-14
172    0.000322272377
173    3.36117578e-16
174    -0.00016686134
175    3.92566821e-16
176    0.000139587723
177    -2.8825748e-07
178    -2.02138221e-06
179    -1.12603623e-05
180    -3.34705309e-05
181    -0.000126395573
182    -0.000249070273
183    -5.86522839e-05
184    5.5270191e-05
185    -5.14422738e-05
186    -1.1126437e-15
187    0.00058971643
188    0.000635694651
189    -0.000272506697
190    2.70840337e-15
191    -0.000325649819
192    -0.000299084326
193    0.000201646473
194    -7.65251157e-15
195    -0.00137258943
196    -0.000977642252
197    -0.00047980598
198    2.37566158e-14
199    0.000793621335
200    0.00281063002
201    -3.51496675e-05
202    1.26142935e-14
203    -0.000226471074
204    1.5077357e-16
205    -8.9746766e-05
206    -7.76142392e-16
207    0.000203208221
208    2.76142816e-09
209    6.08331698e-08
210    1.21532317e-08
211    1.14420155e-06
212    -7.24909642e-06
213    -3.70519078e-05
214    2.47808869e-05
215    -4.60918834e-06
216    -2.37063172e-06
217    -5.31055896e-16
218    8.90083265e-05
219    1.78433648e-05
220    1.25334125e-05
221    1.70323489e-15
222    -0.000380299842
223    -0.000162628602
224    -9.10347825e-05
225    -3.10274444e-15
226    -0.000688883277
227    0.000223207621
228    -0.000215182016
229    1.17152372e-14
230    0.000919967895
231    -0.000255871461
232    0.000321927507
233    4.54095645e-14
234    -1.1057199e-05
235    8.68287651e-16
236    -4.5910152e-06
237    -5.4457164e-16
238    -6.80188156e-06
239    3.31065307e-06
240    2.55034089e-05
241    0.000128047783
242    0.000435928779
243    0.00105990219
244    0.000457469434
245    0.00128392722
246    -4.92178003e-06
247    0.000128459673
248    -2.30874138e-15
249    0.000112248829
250    7.17427965e-05
251    0.000171211362
252    -4.09969347e-15
253    -0.000495315039
254    0.000306570658
255    -0.000299552989
256    -7.44667849e-15
257    0.00514447768
258    0.000173248803
259    0.00153540358
260    2.5196503e-14
261    -0.000627503174
262    -9.11050465e-05
263    0.000144785973
264    2.48303425e-14
265    5.29683716e-05
266    -3.01706511e-16
267    6.28913939e-05
268    2.52408112e-16
269    -0.000150033712
270    2.3577e-05
271    3.48024137e-05
272    -0.00027860476
273    0.000217052822
274    -2.76801759e-05
275    6.02438116e-05
276    -1.39340747e-15
[5D]