                  Welcome to Q-Chem
     A Quantum Leap Into The Future Of Chemistry


 Q-Chem 5.2 (devel), Q-Chem, Inc., Pleasanton, CA (2019)

 Yihan Shao,  Zhengting Gan,  E. Epifanovsky,  A. T. B. Gilbert,  M. Wormit,  
 J. Kussmann,  A. W. Lange,  A. Behn,  Jia Deng,  Xintian Feng,  D. Ghosh,  
 M. Goldey,  P. R. Horn,  L. D. Jacobson,  I. Kaliman,  T. Kus,  A. Landau,  
 Jie Liu,  E. I. Proynov,  R. M. Richard,  R. P. Steele,  E. J. Sundstrom,  
 H. L. Woodcock III,  P. M. Zimmerman,  D. Zuev,  B. Albrecht,  E. Alguire,  
 S. A. Baeppler,  D. Barton,  Z. Benda,  Y. A. Bernard,  E. J. Berquist,  
 K. B. Bravaya,  H. Burton,  D. Casanova,  Chun-Min Chang,  Yunqing Chen,  
 A. Chien,  K. D. Closser,  M. P. Coons,  S. Coriani,  S. Dasgupta,  
 A. L. Dempwolff,  M. Diedenhofen,  Hainam Do,  R. G. Edgar,  Po-Tung Fang,  
 S. Faraji,  S. Fatehi,  Qingguo Feng,  K. D. Fenk,  J. Fosso-Tande,  
 J. Gayvert,  Qinghui Ge,  A. Ghysels,  G. Gidofalvi,  J. Gomes,  
 J. Gonthier,  A. Gunina,  D. Hait,  M. W. D. Hanson-Heine,  
 P. H. P. Harbach,  A. W. Hauser,  M. F. Herbst,  J. E. Herr,  
 E. G. Hohenstein,  Z. C. Holden,  Kerwin Hui,  B. C. Huynh,  T.-C. Jagau,  
 Hyunjun Ji,  B. Kaduk,  K. Khistyaev,  Jaehoon Kim,  P. Klunzinger,  K. Koh,  
 D. Kosenkov,  L. Koulias,  T. Kowalczyk,  C. M. Krauter,  A. Kunitsa,  
 Ka Un Lao,  A. Laurent,  K. V. Lawler,  Joonho Lee,  D. Lefrancois,  
 S. Lehtola,  D. S. Levine,  Yi-Pei Li,  You-Sheng Lin,  Fenglai Liu,  
 E. Livshits,  A. Luenser,  P. Manohar,  E. Mansoor,  S. F. Manzer,  
 Shan-Ping Mao,  Yuezhi Mao,  N. Mardirossian,  A. V. Marenich,  
 T. Markovich,  L. A. Martinez-Martinez,  S. A. Maurer,  N. J. Mayhall,  
 S. C. McKenzie,  J.-M. Mewes,  P. Morgante,  A. F. Morrison,  
 J. W. Mullinax,  K. Nanda,  T. S. Nguyen-Beck,  R. Olivares-Amaya,  
 J. A. Parkhill,  Zheng Pei,  T. M. Perrine,  F. Plasser,  P. Pokhilko,  
 S. Prager,  A. Prociuk,  E. Ramos,  D. R. Rehn,  F. Rob,  M. Scheurer,  
 M. Schneider,  N. Sergueev,  S. M. Sharada,  S. Sharma,  D. W. Small,  
 T. Stauch,  T. Stein,  Yu-Chuan Su,  A. J. W. Thom,  A. Tkatchenko,  
 T. Tsuchimochi,  N. M. Tubman,  L. Vogt,  M. L. Vidal,  O. Vydrov,  
 M. A. Watson,  J. Wenzel,  M. de Wergifosse,  T. A. Wesolowski,  A. White,  
 J. Witte,  A. Yamada,  Jun Yang,  K. Yao,  S. Yeganeh,  S. R. Yost,  
 Zhi-Qiang You,  A. Zech,  Igor Ying Zhang,  Xing Zhang,  Yan Zhao,  
 Ying Zhu,  B. R. Brooks,  G. K. L. Chan,  C. J. Cramer,  M. S. Gordon,  
 W. J. Hehre,  A. Klamt,  M. W. Schmidt,  C. D. Sherrill,  D. G. Truhlar,  
 A. Aspuru-Guzik,  R. Baer,  A. T. Bell,  N. A. Besley,  Jeng-Da Chai,  
 A. E. DePrince, III,  R. A. DiStasio Jr.,  A. Dreuw,  B. D. Dunietz,  
 T. R. Furlani,  Chao-Ping Hsu,  Yousung Jung,  Jing Kong,  D. S. Lambrecht,  
 WanZhen Liang,  C. Ochsenfeld,  V. A. Rassolov,  L. V. Slipchenko,  
 J. E. Subotnik,  T. Van Voorhis,  J. M. Herbert,  A. I. Krylov,  
 P. M. W. Gill,  M. Head-Gordon

 Contributors to earlier versions of Q-Chem not listed above: 
 R. D. Adamson,  B. Austin,  J. Baker,  G. J. O. Beran,  K. Brandhorst,  
 S. T. Brown,  E. F. C. Byrd,  A. K. Chakraborty,  C.-L. Cheng,  
 Siu Hung Chien,  D. M. Chipman,  D. L. Crittenden,  H. Dachsel,  
 R. J. Doerksen,  A. D. Dutoi,  L. Fusti-Molnar,  W. A. Goddard III,  
 A. Golubeva-Zadorozhnaya,  S. R. Gwaltney,  G. Hawkins,  A. Heyden,  
 S. Hirata,  G. Kedziora,  F. J. Keil,  C. Kelley,  Jihan Kim,  R. A. King,  
 R. Z. Khaliullin,  P. P. Korambath,  W. Kurlancheek,  A. M. Lee,  M. S. Lee,  
 S. V. Levchenko,  Ching Yeh Lin,  D. Liotard,  R. C. Lochan,  I. Lotan,  
 P. E. Maslen,  N. Nair,  D. P. O'Neill,  D. Neuhauser,  E. Neuscamman,  
 C. M. Oana,  R. Olson,  B. Peters,  R. Peverati,  P. A. Pieniazek,  
 Y. M. Rhee,  J. Ritchie,  M. A. Rohrdanz,  E. Rosta,  N. J. Russ,  
 H. F. Schaefer III,  N. E. Schultz,  N. Shenvi,  A. C. Simmonett,  A. Sodt,  
 D. Stuck,  K. S. Thanthiriwatte,  V. Vanovschi,  Tao Wang,  A. Warshel,  
 C. F. Williams,  Q. Wu,  X. Xu,  W. Zhang

 Please cite Q-Chem as follows:
 Y. Shao et al., Mol. Phys. 113, 184-215 (2015)
 DOI: 10.1080/00268976.2014.952696

 Q-Chem 5.2.0 for Intel X86 EM64T Linux

 Parts of Q-Chem use Armadillo 8.300.2 (Tropical Shenanigans).
 http://arma.sourceforge.net/

 Q-Chem begins on Wed Jun  5 10:12:28 2019  

n-62-29-36
Host: 0

     Scratch files written to /work1/malop/qc_8384524.hnode2/qchem18395//
NAlpha2: 58
NElect   58
Mult     1

Checking the input file for inconsistencies... 	...done.

--------------------------------------------------------------
User input:
--------------------------------------------------------------
$comment
Uracil XPS C K-edge 6-311(2+,+)G** (uc)
geometry optimizion: mp2/cc-pvtz
$end

$molecule
0 1
C        0.052842   -1.701332    0.000000
H       -2.016793   -1.512231    0.000000
H       -0.025494   -2.778299    0.000000
H       -0.023568    1.988544    0.000000
C       -1.232948    0.358893    0.000000
O       -2.294123    0.950188    0.000000
C        1.274970    0.391620    0.000000
O        2.275873    1.086244    0.000000
N        0.000000    0.978006    0.000000
N       -1.137535   -1.023018    0.000000
C        1.239239   -1.061325    0.000000
H        2.169983   -1.601520    0.000000
$end

$rem
JOBTYPE SP
BASIS GENERAL
METHOD HF
$end

$basis
H    0
6-311(2+,+)G**
****
O    0
S    1    1.000000
   8.58850000E+03    1.89515000E-03
S    1    1.000000
   1.29723000E+03    1.43859000E-02
S    1    1.000000
   2.99296000E+02    7.07320000E-02
S    1    1.000000
   8.73771000E+01    2.40001000E-01
S    1    1.000000
   2.56789000E+01    5.94797000E-01
S    1    1.000000
   3.74004000E+00    2.80802000E-01
SP   3    1.000000
   4.21175000E+01    1.13889000E-01   3.65114000E-02
   9.62837000E+00    9.20811000E-01   2.37153000E-01
   2.85332000E+00   -3.27447000E-03   8.19702000E-01
SP   1    1.000000
   9.05661000E-01    1.00000000E+00   1.00000000E+00
SP   1    1.000000
   2.55611000E-01    1.00000000E+00   1.00000000E+00
SP   1    1.000000
   8.45000000E-02    1.00000000E+00   1.00000000E+00
SP   1    1.000000
   2.54518072E-02    1.00000000E+00   1.00000000E+00
D    1    1.000000
   1.29200000E+00    1.00000000E+00
****
N    0
S    1    1.000000
   6.29348000E+03    1.96979000E-03
S    1    1.000000
   9.49044000E+02    1.49613000E-02
S    1    1.000000
   2.18776000E+02    7.35006000E-02
S    1    1.000000
   6.36916000E+01    2.48937000E-01
S    1    1.000000
   1.88282000E+01    6.02460000E-01
S    1    1.000000
   2.72023000E+00    2.56202000E-01
SP   3    1.000000
   3.06331000E+01    1.11906000E-01   3.83119000E-02
   7.02614000E+00    9.21666000E-01   2.37403000E-01
   2.11205000E+00   -2.56919000E-03   8.17592000E-01
SP   1    1.000000
   6.84009000E-01    1.00000000E+00   1.00000000E+00
SP   1    1.000000
   2.00878000E-01    1.00000000E+00   1.00000000E+00
SP   1    1.000000
   6.39000000E-02    1.00000000E+00   1.00000000E+00
SP   1    1.000000
   1.92469880E-02    1.00000000E+00   1.00000000E+00
D    1    1.000000
   9.13000000E-01    1.00000000E+00
****
C    0
S    1    1.000000
   4.56324000E+03    1.96665000E-03
S    1    1.000000
   6.82024000E+02    1.52306000E-02
S    1    1.000000
   1.54973000E+02    7.61269000E-02
S    1    1.000000
   4.44553000E+01    2.60801000E-01
S    1    1.000000
   1.30290000E+01    6.16462000E-01
S    1    1.000000
   1.82773000E+00    2.21006000E-01
SP   3    1.000000
   2.09642000E+01    1.14660000E-01   4.02487000E-02
   4.80331000E+00    9.19999000E-01   2.37594000E-01
   1.45933000E+00   -3.03068000E-03   8.15854000E-01
SP   1    1.000000
   4.83456000E-01    1.00000000E+00   1.00000000E+00
SP   1    1.000000
   1.45585000E-01    1.00000000E+00   1.00000000E+00
SP   1    1.000000
   4.38000000E-02    1.00000000E+00   1.00000000E+00
SP   1    1.000000
   1.31927711E-02    1.00000000E+00   1.00000000E+00
D    1    1.000000
   6.26000000E-01    1.00000000E+00
****
$end

--------------------------------------------------------------
 ----------------------------------------------------------------
             Standard Nuclear Orientation (Angstroms)
    I     Atom           X                Y                Z
 ----------------------------------------------------------------
    1      C      -0.0071423615    -1.7021374661    -0.0000000000
    2      H      -2.0688284730    -1.4402241233     0.0000000000
    3      H      -0.1233798667    -2.7756752113     0.0000000000
    4      H       0.0465189185     1.9881394681    -0.0000000000
    5      C      -1.2195356258     0.4021166886     0.0000000000
    6      O      -2.2592155329     1.0304381418     0.0000000000
    7      C       1.2879780632     0.3464493659    -0.0000000000
    8      O       2.3127366072     1.0053721559    -0.0000000000
    9      N       0.0344629504     0.9773985746    -0.0000000000
   10      N      -1.1728776526    -0.9822982369     0.0000000000
   11      C       1.2010703878    -1.1043341925    -0.0000000000
   12      H       2.1122009607    -1.6769912546    -0.0000000000
 ----------------------------------------------------------------
 Molecular Point Group                 Cs    NOp =  2
 Largest Abelian Subgroup              Cs    NOp =  2
 Nuclear Repulsion Energy =         357.01163035 hartrees
 There are       29 alpha and       29 beta electrons
 Requested basis set is non-standard
 There are 116 shells and 276 basis functions

 Total QAlloc Memory Limit   2000 MB
 Mega-Array Size       188 MB
 MEM_STATIC part       192 MB

                       Distance Matrix (Angstroms)
             C (  1)   H (  2)   H (  3)   H (  4)   C (  5)   O (  6)
   H (  2)  2.078256
   H (  3)  1.079812  2.359703
   H (  4)  3.690667  4.028445  4.766843
   C (  5)  2.428535  2.028674  3.361535  2.029375
   O (  6)  3.541017  2.477987  4.364435  2.496718  1.214793
   C (  7)  2.423643  3.802677  3.426309  2.058244  2.508132  3.612537
   O (  8)  3.565452  5.017873  4.497886  2.470136  3.583415  4.572021
   N (  9)  2.679859  3.204487  3.756392  1.010813  1.379660  2.294292
   N ( 10)  1.370076  1.006193  2.077895  3.210986  1.385201  2.287190
   C ( 11)  1.348016  3.287105  2.132498  3.300967  2.851092  4.065813
   H ( 12)  2.119492  4.187728  2.490969  4.207164  3.927233  5.141931
             C (  7)   O (  8)   N (  9)   N ( 10)   C ( 11)
   O (  8)  1.218322
   N (  9)  1.403352  2.278445
   N ( 10)  2.796673  4.012523  2.301756
   C ( 11)  1.453384  2.384672  2.386333  2.377083
   H ( 12)  2.184870  2.689849  3.370872  3.357728  1.076148

 A cutoff of  1.0D-08 yielded   5065 shell pairs
 There are     33838 function pairs (     35835 Cartesian)
 Smallest overlap matrix eigenvalue = 2.79E-07

 Q-Chem warning in module stvman/mkSTV.C, line 318:

 Overlap eigenvalue is smaller than square root of threshold
 Use THRESH >= 12 to get rid of this warning

 Linear dependence detected in AO basis
 Tighter screening thresholds may be required for diffuse basis sets
 Use S2THRESH > 14 and THRESH = 14 in case of SCF convergence issues
 Number of orthogonalized atomic orbitals = 274
 Maximum deviation from orthogonality = 1.662E-10

 Scale SEOQF with 1.000000e-01/1.000000e-01/1.000000e-01

 Standard Electronic Orientation quadrupole field applied
 Nucleus-field energy     =     0.0000000098 hartrees
 Guess MOs from core Hamiltonian diagonalization

 -----------------------------------------------------------------------
  General SCF calculation program by
  Eric Jon Sundstrom, Paul Horn, Yuezhi Mao, Dmitri Zuev, Alec White,
  David Stuck, Shaama M.S., Shane Yost, Joonho Lee, David Small,
  Daniel Levine, Susi Lehtola, Hugh Burton, Evgeny Epifanovsky
 -----------------------------------------------------------------------
 Hartree-Fock
 using 4 threads for integral computing
 -------------------------------------------------------
 OpenMP Integral computing Module                
 Release: version 2.0, May 2017, Q-Chem Inc. Pleasanton 
 -------------------------------------------------------
 A restricted SCF calculation will be
 performed using DIIS
 SCF converges when DIIS error is below 1.0e-05
 ---------------------------------------
  Cycle       Energy         DIIS error
 ---------------------------------------
    1    -317.6975961559      1.18e-01  
    2    -296.6532621445      6.20e-02  
    3    -298.4315755363      7.94e-02  
    4    -386.6508335212      4.37e-02  
    5    -406.3538014804      2.27e-02  
    6    -409.8815602039      1.65e-02  
    7    -412.4527302651      2.86e-03  
    8    -412.5540541341      1.08e-03  
    9    -412.5713949428      6.06e-04  
   10    -412.5782827419      2.50e-04  
   11    -412.5798892808      1.35e-04  
   12    -412.5802385756      5.44e-05  
   13    -412.5803257112      2.02e-05  
   14    -412.5803327738      6.00e-06  Convergence criterion met
 ---------------------------------------
 SCF time:   CPU 89.36s  wall 24.00s 
 SCF   energy in the final basis set =     -412.5803327738
 Total energy in the final basis set =     -412.5803327738

 --------------------------------------------------------------
             Orbital Energies (a.u.) and Symmetries
 --------------------------------------------------------------

 Alpha MOs, Restricted
 -- Occupied --                  
-20.550 -20.545 -15.649 -15.632 -11.427 -11.388 -11.346 -11.261
  1 A'    2 A'    3 A'    4 A'    5 A'    6 A'    7 A'    8 A'                 
 -1.442  -1.404  -1.319  -1.250  -1.093  -0.938  -0.906  -0.812
  9 A'   10 A'   11 A'   12 A'   13 A'   14 A'   15 A'   16 A'                 
 -0.770  -0.718  -0.681  -0.671  -0.657  -0.619  -0.605  -0.573
 17 A'   18 A'   19 A'    1 A"   20 A'   21 A'   22 A'    2 A"                 
 -0.528  -0.487  -0.452  -0.438  -0.371
  3 A"   23 A'   24 A'    4 A"    5 A"                                         
 -- Virtual --                   
  0.005   0.019   0.020   0.022   0.031   0.033   0.035   0.036
 25 A'   26 A'    6 A"   27 A'   28 A'   29 A'   30 A'    7 A"                 
  0.038   0.046   0.047   0.049   0.053   0.054   0.055   0.068
  8 A"   31 A'   32 A'   33 A'   34 A'    9 A"   35 A'   36 A'                 
  0.072   0.072   0.079   0.085   0.086   0.088   0.095   0.097
 10 A"   37 A'   11 A"   38 A'   12 A"   39 A'   40 A'   41 A'                 
  0.112   0.116   0.118   0.120   0.127   0.131   0.134   0.137
 13 A"   14 A"   42 A'   43 A'   44 A'   45 A'   46 A'   47 A'                 
  0.138   0.155   0.162   0.164   0.172   0.184   0.189   0.195
 48 A'   15 A"   49 A'   50 A'   16 A"   51 A'   17 A"   52 A'                 
  0.209   0.210   0.224   0.230   0.235   0.241   0.243   0.260
 53 A'   18 A"   54 A'   55 A'   56 A'   19 A"   57 A'   58 A'                 
  0.266   0.270   0.278   0.279   0.286   0.296   0.300   0.333
 59 A'   60 A'   20 A"   61 A'   62 A'   21 A"   63 A'   22 A"                 
  0.333   0.347   0.373   0.388   0.391   0.405   0.410   0.410
 64 A'   65 A'   66 A'   67 A'   68 A'   69 A'   23 A"   70 A'                 
  0.420   0.422   0.441   0.449   0.455   0.463   0.481   0.482
 24 A"   71 A'   72 A'   73 A'   74 A'   75 A'   76 A'   77 A'                 
  0.505   0.529   0.545   0.558   0.615   0.630   0.655   0.706
 78 A'   79 A'   80 A'   81 A'   82 A'   83 A'   84 A'   85 A'                 
  0.734   0.740   0.761   0.776   0.778   0.799   0.822   0.824
 86 A'   25 A"   87 A'   26 A"   88 A'   27 A"   28 A"   89 A'                 
  0.878   0.888   0.938   0.963   0.971   0.979   1.008   1.015
 90 A'   91 A'   92 A'   93 A'   94 A'   95 A'   96 A'   97 A'                 
  1.029   1.042   1.061   1.093   1.100   1.114   1.159   1.227
 98 A'   29 A"   99 A'   30 A"  100 A'  101 A'  102 A'   31 A"                 
  1.242   1.245   1.270   1.301   1.368   1.370   1.393   1.406
 32 A"  103 A'  104 A'  105 A'  106 A'   33 A"   34 A"   35 A"                 
  1.421   1.441   1.460   1.464   1.513   1.515   1.543   1.557
 36 A"  107 A'  108 A'   37 A"   38 A"  109 A'  110 A'  111 A'                 
  1.583   1.760   1.777   1.803   1.814   1.877   1.899   1.915
112 A'  113 A'  114 A'  115 A'   39 A"  116 A'   40 A"  117 A'                 
  1.929   1.952   1.980   2.013   2.014   2.067   2.124   2.143
 41 A"  118 A'  119 A'   42 A"  120 A'  121 A'  122 A'  123 A'                 
  2.186   2.223   2.236   2.283   2.299   2.339   2.357   2.532
124 A'   43 A"  125 A'  126 A'  127 A'   44 A"  128 A'  129 A'                 
  2.566   2.589   2.643   2.668   2.728   2.807   2.822   2.851
 45 A"  130 A'   46 A"  131 A'   47 A"  132 A'   48 A"  133 A'                 
  2.932   2.957   3.006   3.019   3.048   3.094   3.168   3.181
134 A'  135 A'  136 A'  137 A'  138 A'   49 A"   50 A"  139 A'                 
  3.184   3.211   3.263   3.271   3.297   3.310   3.325   3.347
 51 A"  140 A'   52 A"  141 A'  142 A'   53 A"  143 A'   54 A"                 
  3.401   3.515   3.588   3.756   3.767   3.819   3.840   3.876
144 A'  145 A'  146 A'   55 A"   56 A"  147 A'  148 A'  149 A'                 
  3.914   3.959   4.017   4.049   4.106   4.288   4.305   4.364
150 A'  151 A'  152 A'  153 A'  154 A'  155 A'   57 A"   58 A"                 
  4.411   4.485   4.605   5.012   5.158   5.288   5.441   5.553
156 A'  157 A'  158 A'  159 A'  160 A'  161 A'  162 A'  163 A'                 
  5.625   5.633   5.690   5.713   5.783   5.864   5.902   6.438
 59 A"   60 A"  164 A'  165 A'  166 A'  167 A'  168 A'  169 A'                 
  6.445   7.668   7.729   9.888   9.934  20.639  20.695  20.726
170 A'  171 A'  172 A'  173 A'  174 A'  175 A'  176 A'  177 A'                 
 20.897  30.195  30.235  40.894  40.936  80.190  80.235  80.273
178 A'  179 A'  180 A'  181 A'  182 A'  183 A'  184 A'  185 A'                 
 80.428 116.314 116.350 159.240 159.273 322.013 322.053 322.094
186 A'  187 A'  188 A'  189 A'  190 A'  191 A'  192 A'  193 A'                 
322.233 460.413 460.445 631.938 631.9651431.5641431.6041431.646
194 A'  195 A'  196 A'  197 A'  198 A'  199 A'  200 A'  201 A'                 
*******2012.8872012.9162759.3342759.3578749.7838749.8248749.866
202 A'  203 A'  204 A'  205 A'  206 A'  207 A'  208 A'  209 A'                 
***************************************
210 A'  211 A'  212 A'  213 A'  214 A'                                         

 Beta MOs, Restricted
 -- Occupied --                  
-20.550 -20.545 -15.649 -15.632 -11.427 -11.388 -11.346 -11.261
  1 A'    2 A'    3 A'    4 A'    5 A'    6 A'    7 A'    8 A'                 
 -1.442  -1.404  -1.319  -1.250  -1.093  -0.938  -0.906  -0.812
  9 A'   10 A'   11 A'   12 A'   13 A'   14 A'   15 A'   16 A'                 
 -0.770  -0.718  -0.681  -0.671  -0.657  -0.619  -0.605  -0.573
 17 A'   18 A'   19 A'    1 A"   20 A'   21 A'   22 A'    2 A"                 
 -0.528  -0.487  -0.452  -0.438  -0.371
  3 A"   23 A'   24 A'    4 A"    5 A"                                         
 -- Virtual --                   
  0.005   0.019   0.020   0.022   0.031   0.033   0.035   0.036
 25 A'   26 A'    6 A"   27 A'   28 A'   29 A'   30 A'    7 A"                 
  0.038   0.046   0.047   0.049   0.053   0.054   0.055   0.068
  8 A"   31 A'   32 A'   33 A'   34 A'    9 A"   35 A'   36 A'                 
  0.072   0.072   0.079   0.085   0.086   0.088   0.095   0.097
 10 A"   37 A'   11 A"   38 A'   12 A"   39 A'   40 A'   41 A'                 
  0.112   0.116   0.118   0.120   0.127   0.131   0.134   0.137
 13 A"   14 A"   42 A'   43 A'   44 A'   45 A'   46 A'   47 A'                 
  0.138   0.155   0.162   0.164   0.172   0.184   0.189   0.195
 48 A'   15 A"   49 A'   50 A'   16 A"   51 A'   17 A"   52 A'                 
  0.209   0.210   0.224   0.230   0.235   0.241   0.243   0.260
 53 A'   18 A"   54 A'   55 A'   56 A'   19 A"   57 A'   58 A'                 
  0.266   0.270   0.278   0.279   0.286   0.296   0.300   0.333
 59 A'   60 A'   20 A"   61 A'   62 A'   21 A"   63 A'   22 A"                 
  0.333   0.347   0.373   0.388   0.391   0.405   0.410   0.410
 64 A'   65 A'   66 A'   67 A'   68 A'   69 A'   23 A"   70 A'                 
  0.420   0.422   0.441   0.449   0.455   0.463   0.481   0.482
 24 A"   71 A'   72 A'   73 A'   74 A'   75 A'   76 A'   77 A'                 
  0.505   0.529   0.545   0.558   0.615   0.630   0.655   0.706
 78 A'   79 A'   80 A'   81 A'   82 A'   83 A'   84 A'   85 A'                 
  0.734   0.740   0.761   0.776   0.778   0.799   0.822   0.824
 86 A'   25 A"   87 A'   26 A"   88 A'   27 A"   28 A"   89 A'                 
  0.878   0.888   0.938   0.963   0.971   0.979   1.008   1.015
 90 A'   91 A'   92 A'   93 A'   94 A'   95 A'   96 A'   97 A'                 
  1.029   1.042   1.061   1.093   1.100   1.114   1.159   1.227
 98 A'   29 A"   99 A'   30 A"  100 A'  101 A'  102 A'   31 A"                 
  1.242   1.245   1.270   1.301   1.368   1.370   1.393   1.406
 32 A"  103 A'  104 A'  105 A'  106 A'   33 A"   34 A"   35 A"                 
  1.421   1.441   1.460   1.464   1.513   1.515   1.543   1.557
 36 A"  107 A'  108 A'   37 A"   38 A"  109 A'  110 A'  111 A'                 
  1.583   1.760   1.777   1.803   1.814   1.877   1.899   1.915
112 A'  113 A'  114 A'  115 A'   39 A"  116 A'   40 A"  117 A'                 
  1.929   1.952   1.980   2.013   2.014   2.067   2.124   2.143
 41 A"  118 A'  119 A'   42 A"  120 A'  121 A'  122 A'  123 A'                 
  2.186   2.223   2.236   2.283   2.299   2.339   2.357   2.532
124 A'   43 A"  125 A'  126 A'  127 A'   44 A"  128 A'  129 A'                 
  2.566   2.589   2.643   2.668   2.728   2.807   2.822   2.851
 45 A"  130 A'   46 A"  131 A'   47 A"  132 A'   48 A"  133 A'                 
  2.932   2.957   3.006   3.019   3.048   3.094   3.168   3.181
134 A'  135 A'  136 A'  137 A'  138 A'   49 A"   50 A"  139 A'                 
  3.184   3.211   3.263   3.271   3.297   3.310   3.325   3.347
 51 A"  140 A'   52 A"  141 A'  142 A'   53 A"  143 A'   54 A"                 
  3.401   3.515   3.588   3.756   3.767   3.819   3.840   3.876
144 A'  145 A'  146 A'   55 A"   56 A"  147 A'  148 A'  149 A'                 
  3.914   3.959   4.017   4.049   4.106   4.288   4.305   4.364
150 A'  151 A'  152 A'  153 A'  154 A'  155 A'   57 A"   58 A"                 
  4.411   4.485   4.605   5.012   5.158   5.288   5.441   5.553
156 A'  157 A'  158 A'  159 A'  160 A'  161 A'  162 A'  163 A'                 
  5.625   5.633   5.690   5.713   5.783   5.864   5.902   6.438
 59 A"   60 A"  164 A'  165 A'  166 A'  167 A'  168 A'  169 A'                 
  6.445   7.668   7.729   9.888   9.934  20.639  20.695  20.726
170 A'  171 A'  172 A'  173 A'  174 A'  175 A'  176 A'  177 A'                 
 20.897  30.195  30.235  40.894  40.936  80.190  80.235  80.273
178 A'  179 A'  180 A'  181 A'  182 A'  183 A'  184 A'  185 A'                 
 80.428 116.314 116.350 159.240 159.273 322.013 322.053 322.094
186 A'  187 A'  188 A'  189 A'  190 A'  191 A'  192 A'  193 A'                 
322.233 460.413 460.445 631.938 631.9651431.5641431.6041431.646
194 A'  195 A'  196 A'  197 A'  198 A'  199 A'  200 A'  201 A'                 
*******2012.8872012.9162759.3342759.3578749.7838749.8248749.866
202 A'  203 A'  204 A'  205 A'  206 A'  207 A'  208 A'  209 A'                 
***************************************
210 A'  211 A'  212 A'  213 A'  214 A'                                         
 --------------------------------------------------------------

          Ground-State Mulliken Net Atomic Charges

     Atom                 Charge (a.u.)
  ----------------------------------------
      1 C                     0.041962
      2 H                     0.361938
      3 H                     0.164085
      4 H                     0.395021
      5 C                     0.244778
      6 O                    -0.078939
      7 C                     0.021847
      8 O                    -0.117989
      9 N                    -0.604087
     10 N                    -0.410817
     11 C                    -0.261783
     12 H                     0.243984
  ----------------------------------------
  Sum of atomic charges =     0.000000

 -----------------------------------------------------------------
                    Cartesian Multipole Moments
 -----------------------------------------------------------------
    Charge (ESU x 10^10)
                 0.0000
    Dipole Moment (Debye)
         X      -1.3823      Y      -4.9563      Z       0.0000
       Tot       5.1454
    Quadrupole Moments (Debye-Ang)
        XX     -60.6810     XY       2.5048     YY     -38.3412
        XZ       0.0000     YZ       0.0000     ZZ     -46.9505
    Octopole Moments (Debye-Ang^2)
       XXX     -11.3535    XXY     -34.8415    XYY      -5.2027
       YYY      -9.0742    XXZ       0.0000    XYZ      -0.0000
       YYZ      -0.0000    XZZ      -1.9199    YZZ       4.3262
       ZZZ       0.0000
    Hexadecapole Moments (Debye-Ang^3)
      XXXX    -728.3306   XXXY      12.7357   XXYY    -177.0130
      XYYY      13.2601   YYYY    -304.4779   XXXZ       0.0000
      XXYZ       0.0000   XYYZ       0.0000   YYYZ       0.0000
      XXZZ    -114.2378   XYZZ       2.9668   YYZZ     -75.7697
      XZZZ       0.0000   YZZZ       0.0000   ZZZZ     -46.9997
 -----------------------------------------------------------------
Archival summary:
1\1\n-62-29-36\SP\HF\BasisUnspecified\2244\malop\WedJun510:12:532019WedJun510:12:532019\0\\#,HF,BasisUnspecified,\\0,1\N\H,1,1.01081\C,1,1.37966,2,115.327\O,3,1.21479,1,124.21,2,0,0\N,3,1.3852,1,112.713,2,180,0\H,5,1.00619,3,115.142,1,-180,0\C,5,1.37008,3,123.626,1,-0,0\H,7,1.07981,5,115.516,3,180,0\C,7,1.34802,5,121.979,3,-0,0\H,9,1.07615,7,121.525,5,-180,0\C,1,1.40335,2,116.035,3,-180,0\O,11,1.21832,1,120.541,2,0,0\\HF=-412.580333\\@

 Total job time:  24.23s(wall), 89.79s(cpu) 
 Wed Jun  5 10:12:53 2019

        *************************************************************
        *                                                           *
        *  Thank you very much for using Q-Chem.  Have a nice day.  *
        *                                                           *
        *************************************************************


 
User input: 2 of 2 
 
                  Welcome to Q-Chem
     A Quantum Leap Into The Future Of Chemistry


 Q-Chem 5.2 (devel), Q-Chem, Inc., Pleasanton, CA (2019)

 Yihan Shao,  Zhengting Gan,  E. Epifanovsky,  A. T. B. Gilbert,  M. Wormit,  
 J. Kussmann,  A. W. Lange,  A. Behn,  Jia Deng,  Xintian Feng,  D. Ghosh,  
 M. Goldey,  P. R. Horn,  L. D. Jacobson,  I. Kaliman,  T. Kus,  A. Landau,  
 Jie Liu,  E. I. Proynov,  R. M. Richard,  R. P. Steele,  E. J. Sundstrom,  
 H. L. Woodcock III,  P. M. Zimmerman,  D. Zuev,  B. Albrecht,  E. Alguire,  
 S. A. Baeppler,  D. Barton,  Z. Benda,  Y. A. Bernard,  E. J. Berquist,  
 K. B. Bravaya,  H. Burton,  D. Casanova,  Chun-Min Chang,  Yunqing Chen,  
 A. Chien,  K. D. Closser,  M. P. Coons,  S. Coriani,  S. Dasgupta,  
 A. L. Dempwolff,  M. Diedenhofen,  Hainam Do,  R. G. Edgar,  Po-Tung Fang,  
 S. Faraji,  S. Fatehi,  Qingguo Feng,  K. D. Fenk,  J. Fosso-Tande,  
 J. Gayvert,  Qinghui Ge,  A. Ghysels,  G. Gidofalvi,  J. Gomes,  
 J. Gonthier,  A. Gunina,  D. Hait,  M. W. D. Hanson-Heine,  
 P. H. P. Harbach,  A. W. Hauser,  M. F. Herbst,  J. E. Herr,  
 E. G. Hohenstein,  Z. C. Holden,  Kerwin Hui,  B. C. Huynh,  T.-C. Jagau,  
 Hyunjun Ji,  B. Kaduk,  K. Khistyaev,  Jaehoon Kim,  P. Klunzinger,  K. Koh,  
 D. Kosenkov,  L. Koulias,  T. Kowalczyk,  C. M. Krauter,  A. Kunitsa,  
 Ka Un Lao,  A. Laurent,  K. V. Lawler,  Joonho Lee,  D. Lefrancois,  
 S. Lehtola,  D. S. Levine,  Yi-Pei Li,  You-Sheng Lin,  Fenglai Liu,  
 E. Livshits,  A. Luenser,  P. Manohar,  E. Mansoor,  S. F. Manzer,  
 Shan-Ping Mao,  Yuezhi Mao,  N. Mardirossian,  A. V. Marenich,  
 T. Markovich,  L. A. Martinez-Martinez,  S. A. Maurer,  N. J. Mayhall,  
 S. C. McKenzie,  J.-M. Mewes,  P. Morgante,  A. F. Morrison,  
 J. W. Mullinax,  K. Nanda,  T. S. Nguyen-Beck,  R. Olivares-Amaya,  
 J. A. Parkhill,  Zheng Pei,  T. M. Perrine,  F. Plasser,  P. Pokhilko,  
 S. Prager,  A. Prociuk,  E. Ramos,  D. R. Rehn,  F. Rob,  M. Scheurer,  
 M. Schneider,  N. Sergueev,  S. M. Sharada,  S. Sharma,  D. W. Small,  
 T. Stauch,  T. Stein,  Yu-Chuan Su,  A. J. W. Thom,  A. Tkatchenko,  
 T. Tsuchimochi,  N. M. Tubman,  L. Vogt,  M. L. Vidal,  O. Vydrov,  
 M. A. Watson,  J. Wenzel,  M. de Wergifosse,  T. A. Wesolowski,  A. White,  
 J. Witte,  A. Yamada,  Jun Yang,  K. Yao,  S. Yeganeh,  S. R. Yost,  
 Zhi-Qiang You,  A. Zech,  Igor Ying Zhang,  Xing Zhang,  Yan Zhao,  
 Ying Zhu,  B. R. Brooks,  G. K. L. Chan,  C. J. Cramer,  M. S. Gordon,  
 W. J. Hehre,  A. Klamt,  M. W. Schmidt,  C. D. Sherrill,  D. G. Truhlar,  
 A. Aspuru-Guzik,  R. Baer,  A. T. Bell,  N. A. Besley,  Jeng-Da Chai,  
 A. E. DePrince, III,  R. A. DiStasio Jr.,  A. Dreuw,  B. D. Dunietz,  
 T. R. Furlani,  Chao-Ping Hsu,  Yousung Jung,  Jing Kong,  D. S. Lambrecht,  
 WanZhen Liang,  C. Ochsenfeld,  V. A. Rassolov,  L. V. Slipchenko,  
 J. E. Subotnik,  T. Van Voorhis,  J. M. Herbert,  A. I. Krylov,  
 P. M. W. Gill,  M. Head-Gordon

 Contributors to earlier versions of Q-Chem not listed above: 
 R. D. Adamson,  B. Austin,  J. Baker,  G. J. O. Beran,  K. Brandhorst,  
 S. T. Brown,  E. F. C. Byrd,  A. K. Chakraborty,  C.-L. Cheng,  
 Siu Hung Chien,  D. M. Chipman,  D. L. Crittenden,  H. Dachsel,  
 R. J. Doerksen,  A. D. Dutoi,  L. Fusti-Molnar,  W. A. Goddard III,  
 A. Golubeva-Zadorozhnaya,  S. R. Gwaltney,  G. Hawkins,  A. Heyden,  
 S. Hirata,  G. Kedziora,  F. J. Keil,  C. Kelley,  Jihan Kim,  R. A. King,  
 R. Z. Khaliullin,  P. P. Korambath,  W. Kurlancheek,  A. M. Lee,  M. S. Lee,  
 S. V. Levchenko,  Ching Yeh Lin,  D. Liotard,  R. C. Lochan,  I. Lotan,  
 P. E. Maslen,  N. Nair,  D. P. O'Neill,  D. Neuhauser,  E. Neuscamman,  
 C. M. Oana,  R. Olson,  B. Peters,  R. Peverati,  P. A. Pieniazek,  
 Y. M. Rhee,  J. Ritchie,  M. A. Rohrdanz,  E. Rosta,  N. J. Russ,  
 H. F. Schaefer III,  N. E. Schultz,  N. Shenvi,  A. C. Simmonett,  A. Sodt,  
 D. Stuck,  K. S. Thanthiriwatte,  V. Vanovschi,  Tao Wang,  A. Warshel,  
 C. F. Williams,  Q. Wu,  X. Xu,  W. Zhang

 Please cite Q-Chem as follows:
 Y. Shao et al., Mol. Phys. 113, 184-215 (2015)
 DOI: 10.1080/00268976.2014.952696

 Q-Chem 5.2.0 for Intel X86 EM64T Linux

 Parts of Q-Chem use Armadillo 8.300.2 (Tropical Shenanigans).
 http://arma.sourceforge.net/

 Q-Chem begins on Wed Jun  5 10:12:53 2019  

n-62-29-36
Host: 0

     Scratch files written to /work1/malop/qc_8384524.hnode2/qchem18395//
NAlpha2: 60
NElect   58
Mult     3

Checking the input file for inconsistencies... 	...done.

--------------------------------------------------------------
User input:
--------------------------------------------------------------

$molecule
0 3
C        0.052842   -1.701332    0.000000
H       -2.016793   -1.512231    0.000000
H       -0.025494   -2.778299    0.000000
H       -0.023568    1.988544    0.000000
C       -1.232948    0.358893    0.000000
O       -2.294123    0.950188    0.000000
C        1.274970    0.391620    0.000000
O        2.275873    1.086244    0.000000
N        0.000000    0.978006    0.000000
N       -1.137535   -1.023018    0.000000
C        1.239239   -1.061325    0.000000
H        2.169983   -1.601520    0.000000
$end

$rem
   JOB_TYPE  =  SP
   BASIS  = general
   print_general_basis = true
   METHOD  =  EOM-CCSD
   SCF_GUESS read
   mom_start = 1
   CVS_IP_STATES = [4,0]
   !eom_davidson_convergence = 4
   cvs_eom_shift = 10500
   n_frozen_core = fc
   cc_trans_prop = true
   cc_memory = 40000
   cc_do_dyson = true
   MOLDEN_FORMAT = TRUE
$end

$basis
H    0
6-311(2+,+)G**
****
O    0
S    1    1.000000
   8.58850000E+03    1.89515000E-03
S    1    1.000000
   1.29723000E+03    1.43859000E-02
S    1    1.000000
   2.99296000E+02    7.07320000E-02
S    1    1.000000
   8.73771000E+01    2.40001000E-01
S    1    1.000000
   2.56789000E+01    5.94797000E-01
S    1    1.000000
   3.74004000E+00    2.80802000E-01
SP   3    1.000000
   4.21175000E+01    1.13889000E-01   3.65114000E-02
   9.62837000E+00    9.20811000E-01   2.37153000E-01
   2.85332000E+00   -3.27447000E-03   8.19702000E-01
SP   1    1.000000
   9.05661000E-01    1.00000000E+00   1.00000000E+00
SP   1    1.000000
   2.55611000E-01    1.00000000E+00   1.00000000E+00
SP   1    1.000000
   8.45000000E-02    1.00000000E+00   1.00000000E+00
SP   1    1.000000
   2.54518072E-02    1.00000000E+00   1.00000000E+00
D    1    1.000000
   1.29200000E+00    1.00000000E+00
****
N    0
S    1    1.000000
   6.29348000E+03    1.96979000E-03
S    1    1.000000
   9.49044000E+02    1.49613000E-02
S    1    1.000000
   2.18776000E+02    7.35006000E-02
S    1    1.000000
   6.36916000E+01    2.48937000E-01
S    1    1.000000
   1.88282000E+01    6.02460000E-01
S    1    1.000000
   2.72023000E+00    2.56202000E-01
SP   3    1.000000
   3.06331000E+01    1.11906000E-01   3.83119000E-02
   7.02614000E+00    9.21666000E-01   2.37403000E-01
   2.11205000E+00   -2.56919000E-03   8.17592000E-01
SP   1    1.000000
   6.84009000E-01    1.00000000E+00   1.00000000E+00
SP   1    1.000000
   2.00878000E-01    1.00000000E+00   1.00000000E+00
SP   1    1.000000
   6.39000000E-02    1.00000000E+00   1.00000000E+00
SP   1    1.000000
   1.92469880E-02    1.00000000E+00   1.00000000E+00
D    1    1.000000
   9.13000000E-01    1.00000000E+00
****
C    0
S    1    1.000000
   4.56324000E+03    1.96665000E-03
S    1    1.000000
   6.82024000E+02    1.52306000E-02
S    1    1.000000
   1.54973000E+02    7.61269000E-02
S    1    1.000000
   4.44553000E+01    2.60801000E-01
S    1    1.000000
   1.30290000E+01    6.16462000E-01
S    1    1.000000
   1.82773000E+00    2.21006000E-01
SP   3    1.000000
   2.09642000E+01    1.14660000E-01   4.02487000E-02
   4.80331000E+00    9.19999000E-01   2.37594000E-01
   1.45933000E+00   -3.03068000E-03   8.15854000E-01
SP   1    1.000000
   4.83456000E-01    1.00000000E+00   1.00000000E+00
SP   1    1.000000
   1.45585000E-01    1.00000000E+00   1.00000000E+00
SP   1    1.000000
   4.38000000E-02    1.00000000E+00   1.00000000E+00
SP   1    1.000000
   1.31927711E-02    1.00000000E+00   1.00000000E+00
D    1    1.000000
   6.26000000E-01    1.00000000E+00
****
$end

$occupied
1:30
1:26 28 29
$end

--------------------------------------------------------------
 ----------------------------------------------------------------
             Standard Nuclear Orientation (Angstroms)
    I     Atom           X                Y                Z
 ----------------------------------------------------------------
    1      C      -0.0071423615    -1.7021374661    -0.0000000000
    2      H      -2.0688284730    -1.4402241233     0.0000000000
    3      H      -0.1233798667    -2.7756752113     0.0000000000
    4      H       0.0465189185     1.9881394681    -0.0000000000
    5      C      -1.2195356258     0.4021166886     0.0000000000
    6      O      -2.2592155329     1.0304381418     0.0000000000
    7      C       1.2879780632     0.3464493659    -0.0000000000
    8      O       2.3127366072     1.0053721559    -0.0000000000
    9      N       0.0344629504     0.9773985746    -0.0000000000
   10      N      -1.1728776526    -0.9822982369     0.0000000000
   11      C       1.2010703878    -1.1043341925    -0.0000000000
   12      H       2.1122009607    -1.6769912546    -0.0000000000
 ----------------------------------------------------------------
 Molecular Point Group                 Cs    NOp =  2
 Largest Abelian Subgroup              Cs    NOp =  2
 Nuclear Repulsion Energy =         357.01163035 hartrees
 There are       30 alpha and       28 beta electrons
 Requested basis set is non-standard
Basis set in general basis input format:
-----------------------------------------------------------------------
$basis
C    0
S    1    1.000000
   4.56324000E+03    1.96665000E-03 
S    1    1.000000
   6.82024000E+02    1.52306000E-02 
S    1    1.000000
   1.54973000E+02    7.61269000E-02 
S    1    1.000000
   4.44553000E+01    2.60801000E-01 
S    1    1.000000
   1.30290000E+01    6.16462000E-01 
S    1    1.000000
   1.82773000E+00    2.21006000E-01 
SP   3    1.000000
   2.09642000E+01    1.14660000E-01   4.02487000E-02 
   4.80331000E+00    9.19999000E-01   2.37594000E-01 
   1.45933000E+00   -3.03068000E-03   8.15854000E-01 
SP   1    1.000000
   4.83456000E-01    1.00000000E+00   1.00000000E+00 
SP   1    1.000000
   1.45585000E-01    1.00000000E+00   1.00000000E+00 
SP   1    1.000000
   4.38000000E-02    1.00000000E+00   1.00000000E+00 
SP   1    1.000000
   1.31927711E-02    1.00000000E+00   1.00000000E+00 
D    1    1.000000
   6.26000000E-01    1.00000000E+00 
****
H    0
S    3    1.000000
   3.38650000E+01    2.54938000E-02 
   5.09479000E+00    1.90373000E-01 
   1.15879000E+00    8.52161000E-01 
S    1    1.000000
   3.25840000E-01    1.00000000E+00 
S    1    1.000000
   1.02741000E-01    1.00000000E+00 
S    1    1.000000
   3.60000000E-02    1.00000000E+00 
P    1    1.000000
   7.50000000E-01    1.00000000E+00 
****
H    0
S    3    1.000000
   3.38650000E+01    2.54938000E-02 
   5.09479000E+00    1.90373000E-01 
   1.15879000E+00    8.52161000E-01 
S    1    1.000000
   3.25840000E-01    1.00000000E+00 
S    1    1.000000
   1.02741000E-01    1.00000000E+00 
S    1    1.000000
   3.60000000E-02    1.00000000E+00 
P    1    1.000000
   7.50000000E-01    1.00000000E+00 
****
H    0
S    3    1.000000
   3.38650000E+01    2.54938000E-02 
   5.09479000E+00    1.90373000E-01 
   1.15879000E+00    8.52161000E-01 
S    1    1.000000
   3.25840000E-01    1.00000000E+00 
S    1    1.000000
   1.02741000E-01    1.00000000E+00 
S    1    1.000000
   3.60000000E-02    1.00000000E+00 
P    1    1.000000
   7.50000000E-01    1.00000000E+00 
****
C    0
S    1    1.000000
   4.56324000E+03    1.96665000E-03 
S    1    1.000000
   6.82024000E+02    1.52306000E-02 
S    1    1.000000
   1.54973000E+02    7.61269000E-02 
S    1    1.000000
   4.44553000E+01    2.60801000E-01 
S    1    1.000000
   1.30290000E+01    6.16462000E-01 
S    1    1.000000
   1.82773000E+00    2.21006000E-01 
SP   3    1.000000
   2.09642000E+01    1.14660000E-01   4.02487000E-02 
   4.80331000E+00    9.19999000E-01   2.37594000E-01 
   1.45933000E+00   -3.03068000E-03   8.15854000E-01 
SP   1    1.000000
   4.83456000E-01    1.00000000E+00   1.00000000E+00 
SP   1    1.000000
   1.45585000E-01    1.00000000E+00   1.00000000E+00 
SP   1    1.000000
   4.38000000E-02    1.00000000E+00   1.00000000E+00 
SP   1    1.000000
   1.31927711E-02    1.00000000E+00   1.00000000E+00 
D    1    1.000000
   6.26000000E-01    1.00000000E+00 
****
O    0
S    1    1.000000
   8.58850000E+03    1.89515000E-03 
S    1    1.000000
   1.29723000E+03    1.43859000E-02 
S    1    1.000000
   2.99296000E+02    7.07320000E-02 
S    1    1.000000
   8.73771000E+01    2.40001000E-01 
S    1    1.000000
   2.56789000E+01    5.94797000E-01 
S    1    1.000000
   3.74004000E+00    2.80802000E-01 
SP   3    1.000000
   4.21175000E+01    1.13889000E-01   3.65114000E-02 
   9.62837000E+00    9.20811000E-01   2.37153000E-01 
   2.85332000E+00   -3.27447000E-03   8.19702000E-01 
SP   1    1.000000
   9.05661000E-01    1.00000000E+00   1.00000000E+00 
SP   1    1.000000
   2.55611000E-01    1.00000000E+00   1.00000000E+00 
SP   1    1.000000
   8.45000000E-02    1.00000000E+00   1.00000000E+00 
SP   1    1.000000
   2.54518072E-02    1.00000000E+00   1.00000000E+00 
D    1    1.000000
   1.29200000E+00    1.00000000E+00 
****
C    0
S    1    1.000000
   4.56324000E+03    1.96665000E-03 
S    1    1.000000
   6.82024000E+02    1.52306000E-02 
S    1    1.000000
   1.54973000E+02    7.61269000E-02 
S    1    1.000000
   4.44553000E+01    2.60801000E-01 
S    1    1.000000
   1.30290000E+01    6.16462000E-01 
S    1    1.000000
   1.82773000E+00    2.21006000E-01 
SP   3    1.000000
   2.09642000E+01    1.14660000E-01   4.02487000E-02 
   4.80331000E+00    9.19999000E-01   2.37594000E-01 
   1.45933000E+00   -3.03068000E-03   8.15854000E-01 
SP   1    1.000000
   4.83456000E-01    1.00000000E+00   1.00000000E+00 
SP   1    1.000000
   1.45585000E-01    1.00000000E+00   1.00000000E+00 
SP   1    1.000000
   4.38000000E-02    1.00000000E+00   1.00000000E+00 
SP   1    1.000000
   1.31927711E-02    1.00000000E+00   1.00000000E+00 
D    1    1.000000
   6.26000000E-01    1.00000000E+00 
****
O    0
S    1    1.000000
   8.58850000E+03    1.89515000E-03 
S    1    1.000000
   1.29723000E+03    1.43859000E-02 
S    1    1.000000
   2.99296000E+02    7.07320000E-02 
S    1    1.000000
   8.73771000E+01    2.40001000E-01 
S    1    1.000000
   2.56789000E+01    5.94797000E-01 
S    1    1.000000
   3.74004000E+00    2.80802000E-01 
SP   3    1.000000
   4.21175000E+01    1.13889000E-01   3.65114000E-02 
   9.62837000E+00    9.20811000E-01   2.37153000E-01 
   2.85332000E+00   -3.27447000E-03   8.19702000E-01 
SP   1    1.000000
   9.05661000E-01    1.00000000E+00   1.00000000E+00 
SP   1    1.000000
   2.55611000E-01    1.00000000E+00   1.00000000E+00 
SP   1    1.000000
   8.45000000E-02    1.00000000E+00   1.00000000E+00 
SP   1    1.000000
   2.54518072E-02    1.00000000E+00   1.00000000E+00 
D    1    1.000000
   1.29200000E+00    1.00000000E+00 
****
N    0
S    1    1.000000
   6.29348000E+03    1.96979000E-03 
S    1    1.000000
   9.49044000E+02    1.49613000E-02 
S    1    1.000000
   2.18776000E+02    7.35006000E-02 
S    1    1.000000
   6.36916000E+01    2.48937000E-01 
S    1    1.000000
   1.88282000E+01    6.02460000E-01 
S    1    1.000000
   2.72023000E+00    2.56202000E-01 
SP   3    1.000000
   3.06331000E+01    1.11906000E-01   3.83119000E-02 
   7.02614000E+00    9.21666000E-01   2.37403000E-01 
   2.11205000E+00   -2.56919000E-03   8.17592000E-01 
SP   1    1.000000
   6.84009000E-01    1.00000000E+00   1.00000000E+00 
SP   1    1.000000
   2.00878000E-01    1.00000000E+00   1.00000000E+00 
SP   1    1.000000
   6.39000000E-02    1.00000000E+00   1.00000000E+00 
SP   1    1.000000
   1.92469880E-02    1.00000000E+00   1.00000000E+00 
D    1    1.000000
   9.13000000E-01    1.00000000E+00 
****
N    0
S    1    1.000000
   6.29348000E+03    1.96979000E-03 
S    1    1.000000
   9.49044000E+02    1.49613000E-02 
S    1    1.000000
   2.18776000E+02    7.35006000E-02 
S    1    1.000000
   6.36916000E+01    2.48937000E-01 
S    1    1.000000
   1.88282000E+01    6.02460000E-01 
S    1    1.000000
   2.72023000E+00    2.56202000E-01 
SP   3    1.000000
   3.06331000E+01    1.11906000E-01   3.83119000E-02 
   7.02614000E+00    9.21666000E-01   2.37403000E-01 
   2.11205000E+00   -2.56919000E-03   8.17592000E-01 
SP   1    1.000000
   6.84009000E-01    1.00000000E+00   1.00000000E+00 
SP   1    1.000000
   2.00878000E-01    1.00000000E+00   1.00000000E+00 
SP   1    1.000000
   6.39000000E-02    1.00000000E+00   1.00000000E+00 
SP   1    1.000000
   1.92469880E-02    1.00000000E+00   1.00000000E+00 
D    1    1.000000
   9.13000000E-01    1.00000000E+00 
****
C    0
S    1    1.000000
   4.56324000E+03    1.96665000E-03 
S    1    1.000000
   6.82024000E+02    1.52306000E-02 
S    1    1.000000
   1.54973000E+02    7.61269000E-02 
S    1    1.000000
   4.44553000E+01    2.60801000E-01 
S    1    1.000000
   1.30290000E+01    6.16462000E-01 
S    1    1.000000
   1.82773000E+00    2.21006000E-01 
SP   3    1.000000
   2.09642000E+01    1.14660000E-01   4.02487000E-02 
   4.80331000E+00    9.19999000E-01   2.37594000E-01 
   1.45933000E+00   -3.03068000E-03   8.15854000E-01 
SP   1    1.000000
   4.83456000E-01    1.00000000E+00   1.00000000E+00 
SP   1    1.000000
   1.45585000E-01    1.00000000E+00   1.00000000E+00 
SP   1    1.000000
   4.38000000E-02    1.00000000E+00   1.00000000E+00 
SP   1    1.000000
   1.31927711E-02    1.00000000E+00   1.00000000E+00 
D    1    1.000000
   6.26000000E-01    1.00000000E+00 
****
H    0
S    3    1.000000
   3.38650000E+01    2.54938000E-02 
   5.09479000E+00    1.90373000E-01 
   1.15879000E+00    8.52161000E-01 
S    1    1.000000
   3.25840000E-01    1.00000000E+00 
S    1    1.000000
   1.02741000E-01    1.00000000E+00 
S    1    1.000000
   3.60000000E-02    1.00000000E+00 
P    1    1.000000
   7.50000000E-01    1.00000000E+00 
****
$end
-----------------------------------------------------------------------
 There are 116 shells and 276 basis functions
 WARNING: the default MEM_TOTAL is adjusted according to given MEM_STATIC!
 Total memory of 40192 MB is distributed as follows: 
   MEM_STATIC is set to 192 MB
   QALLOC/CCMAN JOB total memory use is  40000 MB
 Warning: actual memory use might exceed 40192 MB

 Total QAlloc Memory Limit  40192 MB
 Mega-Array Size       188 MB
 MEM_STATIC part       192 MB

                       Distance Matrix (Angstroms)
             C (  1)   H (  2)   H (  3)   H (  4)   C (  5)   O (  6)
   H (  2)  2.078256
   H (  3)  1.079812  2.359703
   H (  4)  3.690667  4.028445  4.766843
   C (  5)  2.428535  2.028674  3.361535  2.029375
   O (  6)  3.541017  2.477987  4.364435  2.496718  1.214793
   C (  7)  2.423643  3.802677  3.426309  2.058244  2.508132  3.612537
   O (  8)  3.565452  5.017873  4.497886  2.470136  3.583415  4.572021
   N (  9)  2.679859  3.204487  3.756392  1.010813  1.379660  2.294292
   N ( 10)  1.370076  1.006193  2.077895  3.210986  1.385201  2.287190
   C ( 11)  1.348016  3.287105  2.132498  3.300967  2.851092  4.065813
   H ( 12)  2.119492  4.187728  2.490969  4.207164  3.927233  5.141931
             C (  7)   O (  8)   N (  9)   N ( 10)   C ( 11)
   O (  8)  1.218322
   N (  9)  1.403352  2.278445
   N ( 10)  2.796673  4.012523  2.301756
   C ( 11)  1.453384  2.384672  2.386333  2.377083
   H ( 12)  2.184870  2.689849  3.370872  3.357728  1.076148

 A cutoff of  1.0D-14 yielded   5442 shell pairs
 There are     35779 function pairs (     37954 Cartesian)
 Smallest overlap matrix eigenvalue = 2.79E-07
 Linear dependence detected in AO basis
 Tighter screening thresholds may be required for diffuse basis sets
 Use S2THRESH > 14 and THRESH = 14 in case of SCF convergence issues
 Number of orthogonalized atomic orbitals = 274
 Maximum deviation from orthogonality = 1.662E-10

 Scale SEOQF with 1.000000e-01/1.000000e-01/1.000000e-01

 Standard Electronic Orientation quadrupole field applied
 Nucleus-field energy     =     0.0000000098 hartrees
 Guess MOs from SCF MO coefficient file
 Reading MOs from coefficient file
 User-specified occupied guess orbitals will be used
   Alpha:
   1   2   3   4   5   6   7   8   9  10  11  12  13  14  15
  16  17  18  19  20  21  22  23  24  25  26  27  28  29  30
 Reading MOs from coefficient file
   Beta:
   1   2   3   4   5   6   7   8   9  10  11  12  13  14  15
  16  17  18  19  20  21  22  23  24  25  26  28  29

 -----------------------------------------------------------------------
  General SCF calculation program by
  Eric Jon Sundstrom, Paul Horn, Yuezhi Mao, Dmitri Zuev, Alec White,
  David Stuck, Shaama M.S., Shane Yost, Joonho Lee, David Small,
  Daniel Levine, Susi Lehtola, Hugh Burton, Evgeny Epifanovsky
 -----------------------------------------------------------------------
 Hartree-Fock
 using 4 threads for integral computing
 -------------------------------------------------------
 OpenMP Integral computing Module                
 Release: version 2.0, May 2017, Q-Chem Inc. Pleasanton 
 -------------------------------------------------------
 A unrestricted SCF calculation will be
 performed using DIIS
 SCF converges when DIIS error is below 1.0e-08
 ---------------------------------------
  Cycle       Energy         DIIS error
 ---------------------------------------
Maximum Overlap Method Active
 MOM overlap:    29.9 / 30
Maximum Overlap Method Active
 MOM overlap:    28.0 / 28
    1    -412.1988654346      1.41e-03  
Maximum Overlap Method Active
 MOM overlap:    29.99 / 30
Maximum Overlap Method Active
 MOM overlap:    27.98 / 28
    2    -412.2787074088      1.01e-03  
Maximum Overlap Method Active
 MOM overlap:    29.99 / 30
Maximum Overlap Method Active
 MOM overlap:    27.99 / 28
    3    -412.3254347332      3.88e-04  
Maximum Overlap Method Active
 MOM overlap:    29.99 / 30
Maximum Overlap Method Active
 MOM overlap:    27.99 / 28
    4    -412.3430088434      2.11e-04  
Maximum Overlap Method Active
 MOM overlap:    30.00 / 30
Maximum Overlap Method Active
 MOM overlap:    28.00 / 28
    5    -412.3528679780      9.83e-05  
Maximum Overlap Method Active
 MOM overlap:    30.00 / 30
Maximum Overlap Method Active
 MOM overlap:    28.00 / 28
    6    -412.3548842344      4.78e-05  
Maximum Overlap Method Active
 MOM overlap:    30.00 / 30
Maximum Overlap Method Active
 MOM overlap:    28.00 / 28
    7    -412.3552287627      2.69e-05  
Maximum Overlap Method Active
 MOM overlap:    30.00 / 30
Maximum Overlap Method Active
 MOM overlap:    28.00 / 28
    8    -412.3553549586      1.04e-05  
Maximum Overlap Method Active
 MOM overlap:    30.00 / 30
Maximum Overlap Method Active
 MOM overlap:    28.00 / 28
    9    -412.3553858163      6.56e-06  
Maximum Overlap Method Active
 MOM overlap:    30.00 / 30
Maximum Overlap Method Active
 MOM overlap:    28.00 / 28
   10    -412.3554094814      5.09e-06  
Maximum Overlap Method Active
 MOM overlap:    30.00 / 30
Maximum Overlap Method Active
 MOM overlap:    28.00 / 28
   11    -412.3554353965      4.08e-06  
Maximum Overlap Method Active
 MOM overlap:    30.00 / 30
Maximum Overlap Method Active
 MOM overlap:    28.00 / 28
   12    -412.3554637719      3.22e-06  
Maximum Overlap Method Active
 MOM overlap:    30.00 / 30
Maximum Overlap Method Active
 MOM overlap:    28.00 / 28
   13    -412.3554894594      2.31e-06  
Maximum Overlap Method Active
 MOM overlap:    30.00 / 30
Maximum Overlap Method Active
 MOM overlap:    28.00 / 28
   14    -412.3555043213      1.72e-06  
Maximum Overlap Method Active
 MOM overlap:    30.00 / 30
Maximum Overlap Method Active
 MOM overlap:    28.00 / 28
   15    -412.3555142723      1.16e-06  
Maximum Overlap Method Active
 MOM overlap:    30.00 / 30
Maximum Overlap Method Active
 MOM overlap:    28.00 / 28
   16    -412.3555187616      7.22e-07  
Maximum Overlap Method Active
 MOM overlap:    30.00 / 30
Maximum Overlap Method Active
 MOM overlap:    28.00 / 28
   17    -412.3555201498      4.73e-07  
Maximum Overlap Method Active
 MOM overlap:    30.00 / 30
Maximum Overlap Method Active
 MOM overlap:    28.00 / 28
   18    -412.3555205237      3.39e-07  
Maximum Overlap Method Active
 MOM overlap:    30.00 / 30
Maximum Overlap Method Active
 MOM overlap:    28.00 / 28
   19    -412.3555207179      2.19e-07  
Maximum Overlap Method Active
 MOM overlap:    30.00 / 30
Maximum Overlap Method Active
 MOM overlap:    28.00 / 28
   20    -412.3555208049      1.21e-07  
Maximum Overlap Method Active
 MOM overlap:    30.00 / 30
Maximum Overlap Method Active
 MOM overlap:    28.00 / 28
   21    -412.3555208206      5.71e-08  
Maximum Overlap Method Active
 MOM overlap:    30.00 / 30
Maximum Overlap Method Active
 MOM overlap:    28.00 / 28
   22    -412.3555208231      2.91e-08  
Maximum Overlap Method Active
 MOM overlap:    30.00 / 30
Maximum Overlap Method Active
 MOM overlap:    28.00 / 28
   23    -412.3555208237      1.63e-08  
   24    -412.3555208238      9.66e-09  Convergence criterion met
Maximum Overlap Method Active
 MOM overlap:    30.00 / 30
Maximum Overlap Method Active
 MOM overlap:    28.00 / 28
Maximum Overlap Method Active
 MOM overlap:    30.00 / 30
Maximum Overlap Method Active
 MOM overlap:    28.00 / 28
 ---------------------------------------
 SCF time:   CPU 246.40s  wall 66.00s 
<S^2> =          2.013514973
 SCF   energy in the final basis set =     -412.3555208238
 Total energy in the final basis set =     -412.3555208238


 ------------------------------------------------------------------------------

   CCMAN2: suite of methods based on coupled cluster
           and equation of motion theories.

   Components:
   * libvmm-1.3-trunk
     by Evgeny Epifanovsky, Ilya Kaliman.
   * libtensor-2.5-trunk
     by Evgeny Epifanovsky, Michael Wormit, Dmitry Zuev, Sam Manzer, 
        Ilya Kaliman.
   * libcc-2.5-trunk
     by Evgeny Epifanovsky, Arik Landau, Tomasz Kus, Kirill Khistyaev, 
        Dmitry Zuev, Prashant Manohar, Xintian Feng, Anna Krylov, 
        Matthew Goldey, Alec White, Thomas Jagau, Kaushik Nanda, 
        Anastasia Gunina, Alexander Kunitsa, Joonho Lee.

   CCMAN original authors:
   Anna I. Krylov, C. David Sherrill, Steven R. Gwaltney,
   Edward F. C. Byrd (2000)
   Sergey V. Levchenko, Lyudmila V. Slipchenko, Tao Wang,
   Ana-Maria C. Cristian (2003)
   Piotr A. Pieniazek, C. Melania Oana, Evgeny Epifanovsky (2007)
   Prashant Manohar (2009)

 ------------------------------------------------------------------------------


 Allocating and initializing 40000MB of RAM...
 Calculation will run on 4 cores.


 Alpha MOs, Unrestricted
 -- Occupied --                  
-20.830 -20.606 -15.738 -15.706 -11.525 -11.489 -11.416 -11.335
  1 A'    2 A'    3 A'    4 A'    5 A'    6 A'    7 A'    8 A'                 
 -1.681  -1.497  -1.389  -1.339  -1.173  -1.023  -1.015  -0.915
  9 A'   10 A'   11 A'   12 A'   13 A'   14 A'   15 A'   16 A'                 
 -0.880  -0.868  -0.814  -0.788  -0.777  -0.715  -0.712  -0.699
 17 A'   18 A'    1 A"   19 A'   20 A'   21 A'    2 A"   22 A'                 
 -0.647  -0.580  -0.556  -0.535  -0.440  -0.099
 23 A'    3 A"    4 A"   24 A'    5 A"   25 A'                                 
 -- Virtual --                   
 -0.006  -0.006   0.006   0.007   0.022   0.024   0.027   0.030
  6 A"   26 A'    7 A"   27 A'   28 A'   29 A'   30 A'    8 A"                 
  0.033   0.038   0.040   0.044   0.045   0.049   0.050   0.055
  9 A"   31 A'   32 A'   33 A'   34 A'   35 A'   10 A"   36 A'                 
  0.057   0.059   0.067   0.072   0.072   0.076   0.078   0.088
 11 A"   37 A'   38 A'   12 A"   39 A'   13 A"   40 A'   41 A'                 
  0.088   0.100   0.102   0.109   0.110   0.116   0.122   0.128
 14 A"   42 A'   43 A'   15 A"   44 A'   45 A'   46 A'   47 A'                 
  0.131   0.135   0.139   0.153   0.167   0.169   0.176   0.178
 48 A'   49 A'   50 A'   16 A"   17 A"   51 A'   52 A'   18 A"                 
  0.190   0.197   0.206   0.212   0.214   0.217   0.228   0.233
 53 A'   54 A'   55 A'   19 A"   56 A'   57 A'   58 A'   59 A'                 
  0.234   0.246   0.249   0.251   0.262   0.273   0.289   0.303
 20 A"   60 A'   21 A"   61 A'   62 A'   63 A'   64 A'   22 A"                 
  0.312   0.326   0.328   0.336   0.347   0.356   0.368   0.382
 65 A'   23 A"   66 A'   67 A'   68 A'   69 A'   70 A'   71 A'                 
  0.387   0.389   0.393   0.410   0.420   0.426   0.438   0.450
 72 A'   24 A"   73 A'   74 A'   75 A'   76 A'   77 A'   78 A'                 
  0.472   0.496   0.510   0.542   0.574   0.599   0.647   0.676
 79 A'   80 A'   81 A'   82 A'   83 A'   84 A'   85 A'   86 A'                 
  0.694   0.696   0.711   0.724   0.746   0.749   0.757   0.815
 87 A'   25 A"   26 A"   88 A'   89 A'   27 A"   28 A"   90 A'                 
  0.833   0.881   0.898   0.908   0.932   0.944   0.946   0.966
 91 A'   92 A'   93 A'   94 A'   95 A'   96 A'   97 A'   98 A'                 
  0.986   1.004   1.010   1.037   1.040   1.102   1.155   1.167
 29 A"   99 A'  100 A'   30 A"  101 A'  102 A'   31 A"   32 A"                 
  1.202   1.210   1.216   1.223   1.304   1.311   1.314   1.328
103 A'  104 A'  105 A'   33 A"  106 A'  107 A'   34 A"  108 A'                 
  1.345   1.360   1.366   1.417   1.441   1.463   1.503   1.508
 35 A"   36 A"   37 A"  109 A'   38 A"  110 A'  111 A'  112 A'                 
  1.670   1.702   1.741   1.754   1.791   1.815   1.826   1.866
113 A'  114 A'  115 A'   39 A"  116 A'   40 A"  117 A'   41 A"                 
  1.868   1.907   1.927   1.963   1.973   2.056   2.073   2.128
118 A'  119 A'  120 A'   42 A"  121 A'  122 A'  123 A'  124 A'                 
  2.143   2.148   2.214   2.231   2.268   2.277   2.457   2.480
 43 A"  125 A'  126 A'  127 A'  128 A'   44 A"  129 A'   45 A"                 
  2.506   2.556   2.586   2.664   2.743   2.757   2.776   2.840
130 A'   46 A"  131 A'   47 A"   48 A"  132 A'  133 A'  134 A'                 
  2.903   2.910   2.955   2.964   2.996   3.034   3.064   3.090
135 A'  136 A'  137 A'   49 A"  138 A'   50 A"  139 A'   51 A"                 
  3.118   3.129   3.161   3.204   3.246   3.256   3.260   3.324
140 A'   52 A"  141 A'  142 A'   53 A"   54 A"  143 A'  144 A'                 
  3.432   3.482   3.550   3.677   3.706   3.716   3.759   3.839
145 A'  146 A'   55 A"  147 A'   56 A"  148 A'  149 A'  150 A'                 
  3.882   3.912   3.958   4.039   4.153   4.230   4.293   4.341
151 A'  152 A'  153 A'  154 A'  155 A'   57 A"   58 A"  156 A'                 
  4.395   4.486   4.941   5.064   5.210   5.374   5.383   5.422
157 A'  158 A'  159 A'  160 A'  161 A'  162 A'   59 A"  163 A'                 
  5.496   5.576   5.620   5.657   5.794   5.818   6.209   6.386
164 A'   60 A"  165 A'  166 A'  167 A'  168 A'  169 A'  170 A'                 
  7.585   7.657   9.635   9.859  20.544  20.599  20.654  20.820
171 A'  172 A'  173 A'  174 A'  175 A'  176 A'  177 A'  178 A'                 
 30.114  30.157  40.642  40.859  80.093  80.140  80.199  80.352
179 A'  180 A'  181 A'  182 A'  183 A'  184 A'  185 A'  186 A'                 
116.231 116.271 158.993 159.199 321.915 321.957 322.022 322.158
187 A'  188 A'  189 A'  190 A'  191 A'  192 A'  193 A'  194 A'                 
460.329 460.367 631.696 631.8951431.4681431.5061431.5761431.696
195 A'  196 A'  197 A'  198 A'  199 A'  200 A'  201 A'  202 A'                 
*******2012.8392759.0952759.2888749.6878749.7228749.7978749.902
203 A'  204 A'  205 A'  206 A'  207 A'  208 A'  209 A'  210 A'                 
*******************************
211 A'  212 A'  213 A'  214 A'                                                 

 Beta MOs, Unrestricted
 -- Occupied --                  
-20.789 -20.606 -15.735 -15.706 -11.529 -11.489 -11.415 -11.332
  1 A'    2 A'    3 A'    4 A'    5 A'    6 A'    7 A'    8 A'                 
 -1.561  -1.493  -1.381  -1.329  -1.160  -1.006  -0.990  -0.876
  9 A'   10 A'   11 A'   12 A'   13 A'   14 A'   15 A'   16 A'                 
 -0.849  -0.826  -0.783  -0.779  -0.713  -0.702  -0.698  -0.660
 17 A'   18 A'   19 A'    1 A"   20 A'    2 A"   21 A'   22 A'                 
 -0.581  -0.546  -0.534  -0.436
  3 A"    4 A"   23 A'    5 A"                                                 
 -- Virtual --                   
 -0.085  -0.005   0.005   0.017   0.018   0.021   0.029   0.031
 24 A'    6 A"   25 A'   26 A'   27 A'    7 A"   28 A'   29 A'                 
  0.033   0.034   0.040   0.044   0.045   0.049   0.053   0.054
 30 A'    8 A"    9 A"   31 A'   32 A'   33 A'   34 A'   35 A'                 
  0.054   0.060   0.064   0.067   0.077   0.077   0.079   0.081
 10 A"   36 A'   37 A'   11 A"   38 A'   12 A"   13 A"   39 A'                 
  0.087   0.093   0.093   0.103   0.107   0.112   0.115   0.121
 40 A'   41 A'   14 A"   42 A'   43 A'   15 A"   44 A'   45 A'                 
  0.127   0.132   0.137   0.140   0.143   0.162   0.175   0.176
 46 A'   47 A'   48 A'   49 A'   50 A'   16 A"   17 A"   51 A'                 
  0.183   0.186   0.199   0.204   0.212   0.217   0.220   0.222
 52 A'   18 A"   53 A'   54 A'   55 A'   19 A"   56 A'   57 A'                 
  0.235   0.235   0.238   0.250   0.254   0.256   0.267   0.278
 20 A"   58 A'   59 A'   60 A'   21 A"   61 A'   62 A'   63 A'                 
  0.292   0.308   0.317   0.334   0.336   0.347   0.351   0.359
 64 A'   22 A"   65 A'   23 A"   66 A'   67 A'   68 A'   69 A'                 
  0.379   0.386   0.390   0.395   0.399   0.418   0.425   0.431
 70 A'   71 A'   24 A"   72 A'   73 A'   74 A'   75 A'   76 A'                 
  0.441   0.464   0.480   0.505   0.519   0.551   0.579   0.604
 77 A'   78 A'   79 A'   80 A'   81 A'   82 A'   83 A'   84 A'                 
  0.653   0.687   0.696   0.698   0.711   0.728   0.752   0.756
 85 A'   86 A'   87 A'   25 A"   26 A"   88 A'   27 A"   89 A'                 
  0.759   0.818   0.837   0.886   0.903   0.911   0.935   0.947
 28 A"   90 A'   91 A'   92 A'   93 A'   94 A'   95 A'   96 A'                 
  0.950   0.970   0.988   1.007   1.014   1.038   1.044   1.104
 97 A'   98 A'   29 A"   99 A'  100 A'   30 A"  101 A'  102 A'                 
  1.158   1.168   1.208   1.214   1.222   1.242   1.313   1.315
 31 A"   32 A"  103 A'  104 A'  105 A'   33 A"  106 A'   34 A"                 
  1.333   1.345   1.359   1.367   1.391   1.431   1.441   1.468
107 A'   35 A"   36 A"   37 A"  108 A'  109 A'   38 A"  110 A'                 
  1.506   1.513   1.676   1.708   1.746   1.754   1.804   1.816
111 A'  112 A'  113 A'  114 A'  115 A'   39 A"  116 A'   40 A"                 
  1.831   1.866   1.875   1.910   1.940   1.963   1.975   2.059
117 A'   41 A"  118 A'  119 A'  120 A'   42 A"  121 A'  122 A'                 
  2.074   2.130   2.147   2.157   2.216   2.236   2.273   2.279
123 A'  124 A'   43 A"  125 A'  126 A'  127 A'  128 A'   44 A"                 
  2.460   2.485   2.518   2.559   2.592   2.666   2.753   2.759
129 A'   45 A"  130 A'   46 A"  131 A'   47 A"   48 A"  132 A'                 
  2.783   2.854   2.905   2.934   2.956   2.993   2.999   3.086
133 A'  134 A'  135 A'  136 A'  137 A'   49 A"  138 A'   50 A"                 
  3.106   3.115   3.137   3.145   3.170   3.205   3.248   3.260
 51 A"  139 A'   52 A"  140 A'  141 A'  142 A'   53 A"   54 A"                 
  3.261   3.327   3.435   3.491   3.567   3.704   3.706   3.749
143 A'  144 A'  145 A'  146 A'   55 A"  147 A'   56 A"  148 A'                 
  3.767   3.842   3.884   3.925   3.960   4.041   4.167   4.231
149 A'  150 A'  151 A'  152 A'  153 A'  154 A'  155 A'   57 A"                 
  4.293   4.345   4.401   4.492   4.942   5.068   5.213   5.375
 58 A"  156 A'  157 A'  158 A'  159 A'  160 A'  161 A'  162 A'                 
  5.412   5.449   5.575   5.589   5.623   5.661   5.796   5.821
 59 A"  163 A'   60 A"  164 A'  165 A'  166 A'  167 A'  168 A'                 
  6.230   6.387   7.588   7.658   9.681   9.860  20.543  20.599
169 A'  170 A'  171 A'  172 A'  173 A'  174 A'  175 A'  176 A'                 
 20.655  20.821  30.115  30.157  40.663  40.859  80.092  80.140
177 A'  178 A'  179 A'  180 A'  181 A'  182 A'  183 A'  184 A'                 
 80.199  80.353 116.232 116.271 159.000 159.199 321.915 321.957
185 A'  186 A'  187 A'  188 A'  189 A'  190 A'  191 A'  192 A'                 
322.022 322.158 460.330 460.367 631.698 631.8951431.4681431.506
193 A'  194 A'  195 A'  196 A'  197 A'  198 A'  199 A'  200 A'                 
*******1431.6962012.8032012.8392759.0952759.2898749.6878749.722
201 A'  202 A'  203 A'  204 A'  205 A'  206 A'  207 A'  208 A'                 
*******8749.902********************************
209 A'  210 A'  211 A'  212 A'  213 A'  214 A'                                 

 Occupation and symmetry of molecular orbitals

 Point group: Cs (2 irreducible representations).

                           A'   A"    All 
 ------------------------------------------
 All molecular orbitals:
  - Alpha                  214  60    274 
  - Beta                   214  60    274 
 ------------------------------------------
 Alpha orbitals:
  - Frozen occupied        8    0     8   
  - Active occupied        17   5     22  
  - Active virtual         189  55    244 
  - Frozen virtual         0    0     0   
 ------------------------------------------
 Beta orbitals:
  - Frozen occupied        8    0     8   
  - Active occupied        15   5     20  
  - Active virtual         191  55    246 
  - Frozen virtual         0    0     0   
 ------------------------------------------

 Import integrals:   CPU 0.00 s  wall 0.00 s

 Import integrals:   CPU 1379.18 s  wall 463.63 s

 MP2 amplitudes:   CPU 2.67 s  wall 2.48 s

Running a double precision version
           CCSD T amplitudes will be solved using DIIS.

           Start     Size      MaxIter   EConv     TConv     
           3         7         100       1.00e-06  1.00e-04  
 ------------------------------------------------------------------------------
           Energy (a.u.)   Ediff      Tdiff       Comment
 ------------------------------------------------------------------------------
          -413.59386121                           
     1    -413.57499371   1.89e-02   9.82e-01     Step took 01.23.
     2    -413.61930097   4.43e-02   1.36e-01     
     3    -413.61686877   2.43e-03   5.10e-02     
     4    -413.62210039   5.23e-03   2.38e-02     Switched to DIIS steps.
     5    -413.62528876   3.19e-03   1.57e-02     
     6    -413.62612887   8.40e-04   8.43e-03     
     7    -413.62648541   3.57e-04   5.94e-03     
     8    -413.62663794   1.53e-04   2.99e-03     
     9    -413.62677799   1.40e-04   2.21e-03     
    10    -413.62679844   2.05e-05   8.76e-04     
    11    -413.62681320   1.48e-05   5.24e-04     
    12    -413.62681926   6.06e-06   5.34e-04     
    13    -413.62681286   6.39e-06   2.67e-04     
    14    -413.62681037   2.50e-06   1.76e-04     
    15    -413.62680622   4.15e-06   9.84e-05     
    16    -413.62680406   2.16e-06   4.54e-05     
    17    -413.62680228   1.79e-06   3.09e-05     
    18    -413.62680134   9.40e-07   1.76e-05     
 ------------------------------------------------------------------------------
          -413.62680134                           CCSD T converged.

End of double precision
 SCF energy                 = -412.35552082
 MP2 energy                 = -413.59386121
 CCSD correlation energy    =   -1.27128051
 CCSD total energy          = -413.62680134

 CCSD  T1^2 = 0.1078  T2^2 = 0.4190  Leading amplitudes:

 Amplitude    Orbitals with energies
  0.1112       25 (A') A                 ->    26 (A') A                  
              -0.0985                         -0.0055                     
 -0.1044       25 (A') A                 ->    31 (A') A                  
              -0.0985                          0.0379                     
 -0.0878       23 (A') B                 ->    24 (A') B                  
              -0.5335                         -0.0847                     
 -0.0860       25 (A') A                 ->    27 (A') A                  
              -0.0985                          0.0072                     

 Amplitude    Orbitals with energies
  0.0382       5 (A") A      5 (A") B    ->    6 (A") A      6 (A") B     
              -0.4401       -0.4363           -0.0065       -0.0046       
 -0.0382       5 (A") A      5 (A") B    ->    6 (A") B      6 (A") A     
              -0.4401       -0.4363           -0.0046       -0.0065       
 -0.0382       5 (A") B      5 (A") A    ->    6 (A") A      6 (A") B     
              -0.4363       -0.4401           -0.0065       -0.0046       
  0.0382       5 (A") B      5 (A") A    ->    6 (A") B      6 (A") A     
              -0.4363       -0.4401           -0.0046       -0.0065       

 Computing CCSD intermediates for later calculations in double precision
 Finished.

Running a double precision version
           CCSD Lambda amplitudes will be solved using DIIS.
           Start     Size      MaxIter   EConv     LConv     
           3         7         100       1.00e-06  1.00e-04  
 ------------------------------------------------------------------------------
            Enorm      Ldiff       Comment
 ------------------------------------------------------------------------------
     1     8.30e-02   5.12e-02     
     2     3.08e-02   8.99e-03     
     3     1.85e-02   2.00e-03     
     4     7.96e-03   1.97e-03     Switched to DIIS steps.
     5     3.67e-03   1.90e-03     
     6     1.97e-03   8.29e-04     
     7     1.24e-03   4.00e-04     
     8     9.02e-04   2.38e-04     
     9     5.78e-04   1.62e-04     
    10     3.42e-04   8.89e-05     
    11     2.04e-04   3.13e-05     
    12     1.03e-04   1.50e-06     
    13     6.37e-05   1.05e-05     
    14     3.54e-05   1.42e-05     
    15     2.04e-05   9.37e-06     
    16     1.33e-05   5.70e-06     
    17     8.10e-06   3.94e-06     
    18     5.92e-06   2.67e-06     
    19     4.13e-06   1.58e-06     
    20     3.01e-06   1.32e-06     
    21     1.89e-06   9.91e-07     
    22     1.12e-06   5.46e-07     
    23     6.43e-07   2.32e-07     
 ------------------------------------------------------------------------------
                                   CCSD Lambda converged.

 CCSD calculation:   CPU 10071.19 s  wall 4429.55 s

        Solving for CVS-EOMIP-CCSD A' transitions.

Running a double precision version
      CVS-EOMIP-CCSD/MP2 right amplitudes will be solved using Davidson.
        Amplitudes will be solved using shifted  algorithm.
     Hard-coded thresholds: 
     LinDepThresh=1.00e-15  NormThresh=1.00e-06  ReorthogonThresh=1.00e-02

      Roots     MaxVec    MaxIter   Precond   Conv      Shift    
      4         120       60        1         1.00e-05  1.05e+01  
 ------------------------------------------------------------------------------
      Iter ConvRoots NVecs ResNorm Current eigenvalues (eV)
 ------------------------------------------------------------------------------
      0    0      4     9.74e-01   308.0688   309.7878   311.7241   312.5857   
      1    0      8     2.23e+00   305.2284   306.9961   308.9084   309.7699   
      2    0      12    2.87e-02   294.1174   296.0043   298.4296   299.0071   
      3    0      16    2.06e-03   293.6471   295.5309   298.0273   298.5580   
      4    0      20    2.96e-04   293.6298   295.4999   298.0024   298.5216   
      5    1      24    1.82e-05   293.6269*  295.4922   297.9983   298.5137   
      6    4      27    5.84e-06   293.6269*  295.4920*  297.9986*  298.5132*  

     Davidson procedure converged

 EOMIP transition 1/A'
 Total energy = -402.83620969 a.u.  Excitation energy = 293.6269 eV.
 R1^2 = 0.8896  R2_CCVV^2 = 0.0018  R2_COVV^2 = 0.1094  Res^2 = 6.66e-06
 Conv-d = yes

 Amplitude    Transitions between orbitals
  0.9432       8 (A') A                  ->    infty        
  0.0032       7 (A') A                  ->    infty        
  0.0007       5 (A') A                  ->    infty        

              Summary of significant orbitals:

               Number  Type             Irrep      Energy
               5       Occ  Alpha       5 (A')    -11.5246
               7       Occ  Alpha       7 (A')    -11.4157
               8       Occ  Alpha       8 (A')    -11.3350


 EOMIP transition 2/A'
 Total energy = -402.76766802 a.u.  Excitation energy = 295.4920 eV.
 R1^2 = 0.8807  R2_CCVV^2 = 0.0018  R2_COVV^2 = 0.1184  Res^2 = 5.00e-06
 Conv-d = yes

 Amplitude    Transitions between orbitals
 -0.9385       7 (A') A                  ->    infty        
  0.0035       8 (A') A                  ->    infty        

              Summary of significant orbitals:

               Number  Type             Irrep      Energy
               7       Occ  Alpha       7 (A')    -11.4157
               8       Occ  Alpha       8 (A')    -11.3350


 EOMIP transition 3/A'
 Total energy = -402.67555462 a.u.  Excitation energy = 297.9986 eV.
 R1^2 = 0.8914  R2_CCVV^2 = 0.0018  R2_COVV^2 = 0.1077  Res^2 = 3.32e-06
 Conv-d = yes

 Amplitude    Transitions between orbitals
  0.9441       6 (A') A                  ->    infty        
 -0.0005       5 (A') A                  ->    infty        

              Summary of significant orbitals:

               Number  Type             Irrep      Energy
               5       Occ  Alpha       5 (A')    -11.5246
               6       Occ  Alpha       6 (A')    -11.4893


 EOMIP transition 4/A'
 Total energy = -402.65664274 a.u.  Excitation energy = 298.5132 eV.
 R1^2 = 0.8811  R2_CCVV^2 = 0.0018  R2_COVV^2 = 0.1180  Res^2 = 8.39e-06
 Conv-d = yes

 Amplitude    Transitions between orbitals
  0.9387       5 (A') A                  ->    infty        
 -0.0007       8 (A') A                  ->    infty        
  0.0005       6 (A') A                  ->    infty        

              Summary of significant orbitals:

               Number  Type             Irrep      Energy
               5       Occ  Alpha       5 (A')    -11.5246
               6       Occ  Alpha       6 (A')    -11.4893
               8       Occ  Alpha       8 (A')    -11.3350


Running a double precision version
      CVS-EOMIP-CCSD/MP2 left amplitudes will be solved using Davidson.
        Amplitudes will be solved using MOM  algorithm.
     Hard-coded thresholds: 
     LinDepThresh=1.00e-15  NormThresh=1.00e-06  ReorthogonThresh=1.00e-02

      Roots     MaxVec    MaxIter   Precond   Conv      Shift    
      4         120       60        1         1.00e-05  1.05e+01  
 ------------------------------------------------------------------------------
      Iter ConvRoots NVecs ResNorm Current eigenvalues (eV)
 ------------------------------------------------------------------------------
      0    0      4     1.46e-02   294.5803   296.2988   298.6884   299.2270   
      1    0      8     2.87e-01   293.6544   295.5262   298.0360   298.5533   
      2    0      12    1.26e-02   293.6265   295.4986   297.9973   298.5136   
      3    0      16    1.08e-03   293.6296   295.4961   298.0015   298.5189   
      4    3      20    7.55e-06   293.6266*  295.4908   297.9967*  298.5109*  
      5    3      21    7.76e-06   293.6266*  295.4917   297.9967*  298.5109*  
      6    4      22    4.56e-06   293.6266*  295.4920*  297.9967*  298.5109*  

     Davidson procedure converged

 CVS-EOMIP-CCSD calculation:   CPU 126.77 s  wall 52.61 s


 Reference -- EOM-IP-CCSD state  1/A'   transition
 Energy difference = 293.6269 eV.

 Left Dyson orbital norm is 0.922229

Left alpha Dyson orbital in the MO basis (canonical Q-Chem's ordering):
0     9.7626e-07
1     6.8055e-08
2     -1.8983e-06
3     2.7107e-06
4     7.8199e-04
5     2.6267e-05
6     3.6647e-03
7     9.9999e-01
8     2.1007e-16
9     5.4210e-16
10    -3.3074e-17
11    -3.8187e-16
12    9.8103e-17
13    1.9504e-16
14    7.8510e-17
15    -2.1380e-16
16    1.8405e-16
17    2.0235e-16
18    -1.0019e-16
19    -1.9457e-16
20    5.9684e-17
21    1.2512e-16
22    -6.8723e-17
23    3.7325e-16
24    3.9149e-17
25    1.1480e-16
26    -4.0173e-17
27    -3.5398e-16
28    1.4628e-16
29    1.2524e-16
30    -8.7021e-17
31    -1.2116e-16
32    -5.2304e-17
33    -1.6356e-15
34    4.6462e-15
35    -1.9356e-15
36    -1.7083e-15
37    -2.4150e-16
38    7.5936e-16
39    -1.0535e-15
40    6.6306e-15
41    1.8999e-16
42    5.4551e-15
43    -2.6757e-15
44    -4.2252e-15
45    6.8442e-15
46    -1.5821e-15
47    9.6477e-15
48    -1.0647e-14
49    -2.3012e-15
50    1.7595e-16
51    4.0624e-16
52    1.1721e-15
53    1.4937e-14
54    -2.2008e-16
55    -1.2242e-15
56    4.0029e-15
57    3.0652e-15
58    1.2105e-14
59    -9.9848e-15
60    5.3945e-15
61    8.4091e-15
62    2.0649e-15
63    -8.8939e-15
64    -2.3633e-14
65    3.7280e-15
66    4.7190e-15
67    1.0124e-14
68    -8.0692e-16
69    -1.1658e-15
70    -5.5821e-15
71    1.3974e-15
72    -1.0094e-14
73    7.8062e-16
74    2.1711e-15
75    -5.7197e-15
76    1.2355e-15
77    -1.0111e-14
78    8.9460e-16
79    -6.6278e-15
80    1.3804e-15
81    4.4759e-15
82    2.5153e-14
83    -3.1990e-15
84    -4.4814e-15
85    8.3745e-15
86    -5.2795e-15
87    1.6949e-15
88    -5.9275e-15
89    2.3961e-15
90    -2.8840e-15
91    1.4724e-15
92    1.9472e-15
93    -5.5752e-16
94    2.2951e-15
95    -3.1332e-16
96    1.7981e-14
97    -2.0457e-15
98    8.7221e-15
99    -2.8644e-15
100   1.1173e-14
101   -6.2562e-15
102   1.8640e-15
103   -2.1020e-16
104   -8.9205e-15
105   -1.1252e-15
106   1.7527e-14
107   -6.9669e-15
108   8.8438e-15
109   -4.1779e-15
110   1.7210e-15
111   7.3825e-16
112   -1.2804e-15
113   -1.7732e-16
114   -4.1880e-15
115   -1.0070e-16
116   -1.6129e-15
117   5.2289e-15
118   -4.7510e-15
119   -6.9741e-15
120   2.6555e-15
121   -4.8731e-15
122   2.9437e-15
123   1.8491e-15
124   -3.2136e-16
125   5.6302e-15
126   -1.8582e-15
127   -7.7922e-15
128   5.9617e-15
129   4.6276e-15
130   3.1206e-15
131   -2.6769e-15
132   5.4361e-17
133   8.8469e-16
134   -1.1360e-15
135   -8.5547e-15
136   -2.0127e-15
137   -7.3359e-16
138   -2.4093e-15
139   1.9758e-15
140   -5.8046e-16
141   2.9440e-15
142   -1.5141e-16
143   3.4535e-17
144   3.6668e-17
145   -1.1697e-15
146   -1.6463e-16
147   -4.3276e-15
148   -5.7430e-15
149   4.7325e-15
150   2.4645e-15
151   5.2485e-16
152   7.7889e-16
153   -2.5727e-17
154   -2.5382e-15
155   -1.2652e-15
156   4.8293e-15
157   4.4025e-16
158   -9.7260e-16
159   8.5569e-16
160   7.8023e-16
161   -2.5326e-18
162   2.6296e-15
163   -1.5671e-15
164   -2.6391e-16
165   2.4104e-15
166   4.5445e-16
167   6.4537e-16
168   -1.6090e-15
169   -1.3930e-15
170   -2.1862e-15
171   1.4279e-16
172   3.4140e-15
173   -6.5635e-16
174   1.0786e-15
175   -2.1518e-16
176   -1.5158e-15
177   9.3628e-17
178   2.1004e-17
179   1.4608e-15
180   -2.5044e-16
181   -1.0264e-15
182   7.7452e-16
183   1.7507e-15
184   -8.1238e-16
185   -1.1006e-16
186   -1.6723e-15
187   -2.0116e-16
188   1.1820e-15
189   1.3756e-15
190   1.3298e-15
191   -3.3452e-18
192   7.4763e-16
193   2.5138e-15
194   -1.5007e-16
195   -6.9199e-16
196   1.5705e-15
197   -1.5155e-15
198   -2.0093e-15
199   5.5457e-16
200   -5.9248e-16
201   -8.2619e-16
202   1.4687e-16
203   9.8248e-16
204   2.6811e-15
205   -2.7232e-17
206   -1.4330e-15
207   -7.6795e-16
208   1.5912e-15
209   -2.2761e-16
210   2.3510e-15
211   6.7574e-16
212   2.7721e-15
213   -6.4993e-16
214   -4.7728e-16
215   1.7185e-15
216   -2.3555e-15
217   -3.0111e-15
218   -1.3300e-15
219   2.0770e-15
220   7.2454e-16
221   7.5315e-16
222   3.0701e-15
223   -4.2226e-16
224   -1.0555e-15
225   -2.4566e-15
226   -6.6921e-16
227   -1.9193e-15
228   -2.9813e-16
229   -5.1725e-15
230   -1.3947e-16
231   1.1858e-16
232   -7.8081e-16
233   3.0934e-15
234   1.9371e-15
235   8.9903e-16
236   1.4612e-15
237   -2.3402e-15
238   5.7330e-16
239   7.1863e-16
240   -7.2672e-16
241   -2.4096e-15
242   2.2311e-16
243   3.4036e-16
244   -1.1906e-15
245   1.3857e-15
246   -3.8662e-16
247   1.2998e-15
248   -1.1892e-15
249   -4.5010e-16
250   1.7178e-16
251   -6.6722e-16
252   6.6122e-17
253   1.3281e-15
254   -6.8653e-16
255   -1.1648e-17
256   -6.5891e-17
257   1.2460e-16
258   -8.1235e-16
259   1.2329e-15
260   -1.8859e-15
261   7.6966e-16
262   -8.7593e-16
263   1.7155e-15
264   -1.3887e-15
265   -5.0390e-16
266   7.8296e-16
267   -2.8585e-16
268   -1.2654e-15
269   -1.5278e-16
270   -4.7126e-16
271   1.0988e-15
272   -7.0604e-16
273   -2.7543e-16

Decomposition over AOs for the left alpha Dyson orbital:
1.48819144e-05
1.15298586e-04
5.74666808e-04
1.97570622e-03
4.64622690e-03
1.71733634e-03
6.34789951e-03
-1.53599602e-04
-6.54959865e-05
2.27572894e-15
-4.41224347e-04
-4.83923612e-04
-3.02097456e-04
6.23013655e-15
9.40683811e-04
1.96753841e-04
6.87525591e-04
5.92803488e-15
4.89916057e-03
3.56581509e-04
2.11551670e-03
-5.46204013e-14
4.70889050e-04
-1.92479006e-04
3.44047281e-04
7.22803768e-14
-2.89270341e-04
3.70047657e-16
2.26275616e-05
-2.82262095e-16
-1.70583444e-04
-7.50364211e-06
-5.56610374e-05
-9.61293267e-05
-3.34835251e-04
-1.37505952e-05
1.31705284e-06
6.83927699e-16
-1.85954828e-05
-5.01705441e-05
4.65503247e-04
1.14956976e-03
-6.59206532e-05
-6.01249411e-05
1.77177267e-15
-1.50769586e-05
1.12275200e-05
1.77354932e-04
3.66155815e-06
-6.83509678e-06
-3.21970520e-06
-4.59734890e-16
-6.63212828e-08
-5.38117284e-07
-2.50639069e-06
-9.29703750e-06
-1.54277112e-05
2.00678322e-05
-4.37777819e-05
6.59065329e-06
-3.65297537e-06
-1.92853835e-15
-6.70824743e-05
-2.83948909e-05
1.17430344e-05
1.65869744e-16
3.92246164e-04
3.70381313e-04
[...]
210   -5.4222e-16
211   6.4445e-16
212   1.2224e-15
213   -1.8207e-15
214   2.8624e-15
215   -4.9642e-16
216   -3.8428e-16
217   -2.7188e-16
218   -1.1643e-16
219   -2.0150e-16
220   -7.6732e-16
221   -3.9900e-16
222   -4.2799e-16
223   -2.9939e-17
224   -3.4762e-17
225   -2.0431e-15
226   -1.6716e-15
227   1.6182e-15
228   7.0378e-17
229   -1.6112e-15
230   4.1672e-17
231   4.0501e-16
232   -3.7026e-16
233   -3.7341e-17
234   -2.9045e-16
235   1.0794e-15
236   -1.8754e-15
237   -1.7766e-15
238   2.5317e-16
239   3.0354e-16
240   -8.4398e-16
241   -8.7656e-17
242   -1.0133e-15
243   -7.4913e-16
244   -2.2847e-15
245   4.9826e-16
246   -4.3208e-16
247   1.0117e-15
248   -7.1670e-16
249   -7.2635e-16
250   1.6973e-16
251   -3.0982e-19
252   -3.0259e-16
253   7.0232e-17
254   -2.2076e-19
255   -4.0795e-16
256   -2.5257e-16
257   6.1535e-16
258   -7.1921e-16
259   8.6336e-16
260   -7.5501e-16
261   1.3558e-16
262   -5.2200e-16
263   5.3135e-16
264   -8.3841e-16
265   -9.0034e-17
266   2.7437e-16
267   -4.0719e-16
268   -7.7371e-16
269   -2.3660e-17
270   5.9568e-17
271   7.0764e-16
272   -5.4179e-16
273   1.5996e-20

Decomposition over AOs for the right alpha Dyson orbital:
1.62193541e-08
1.76603057e-07
5.11633308e-07
3.20090754e-06
-5.61189510e-06
-5.08238501e-05
3.80785737e-05
-1.48419921e-05
-2.53818789e-05
-7.88105819e-16
7.49590874e-05
8.30742375e-05
1.21429873e-04
-4.90993447e-15
4.15334422e-04
-2.77784113e-06
3.78551948e-04
1.37864197e-15
-2.53647674e-04
2.23234603e-04
-2.44778801e-04
-2.97813963e-14
-5.33672441e-04
1.35790486e-04
-2.86470608e-04
-4.53739878e-14
6.82136305e-05
2.43581758e-16
-1.48309986e-05
-1.32813706e-15
-1.43385266e-05
8.14306878e-06
-5.04041983e-05
1.65308927e-04
2.52610827e-05
2.43315797e-06
-5.40401316e-07
5.09992590e-16
-9.87753613e-06
1.16729644e-04
3.46059499e-05
1.01015117e-04
1.53474945e-05
1.39545969e-05
-4.72778810e-16
4.78289284e-05
-1.31613488e-04
3.77282480e-04
1.44547293e-04
-1.05297338e-05
-1.21852749e-05
-2.22886481e-16
-8.45614048e-07
-6.49686836e-06
-3.27660435e-05
-1.11097911e-04
-2.75332743e-04
-1.47926193e-04
-3.23286407e-04
-2.66367261e-05
3.14784447e-06
1.12586100e-15
6.92242792e-05
8.70005764e-05
-1.30362460e-05
4.53252253e-15
1.73416728e-05
2.14379447e-06
-2.26341282e-04
1.14617594e-15
1.28443195e-04
1.23700850e-04
-5.53444019e-04
-1.96919231e-14
1.54741389e-03
1.73627271e-04
1.67841051e-04
-8.81217891e-15
-7.55553353e-06
5.26767224e-16
-1.25610583e-05
-9.00188838e-16
6.34266040e-05
-5.79482897e-10
-6.03943393e-09
-1.83866801e-08
-1.03796731e-07
2.20351223e-07
1.95477215e-06
-1.65362040e-06
-2.89157693e-08
-7.07641835e-07
1.45858449e-15
-4.21435386e-06
1.04756149e-05
7.57011137e-06
2.70965733e-15
5.40216219e-05
7.19611771e-06
2.41025688e-05
2.30981668e-15
-8.26199687e-06
-2.56487586e-05
-4.12094525e-05
9.04300109e-15
1.98176312e-03
4.92918290e-04
1.97554541e-04
-7.16111097e-15
6.53174271e-06
3.39009722e-16
2.55920918e-06
3.97175968e-16
7.09685033e-06
1.10951737e-03
8.58923873e-03
4.28484654e-02
1.47100772e-01
3.47531885e-01
1.26463223e-01
4.65502154e-01
4.56098327e-04
1.47286210e-03
-2.41662674e-15
1.49616630e-03
-2.15121863e-04
-1.11885411e-03
-3.46441566e-15
2.44282040e-03
5.60049586e-05
8.17802662e-04
-6.28637432e-15
-7.51827218e-04
7.49804650e-04
3.03844605e-03
-3.54617669e-14
-4.55437859e-04
1.23160439e-04
-4.60400368e-04
5.03815385e-15
1.35430331e-04
3.78362503e-16
-3.32458762e-04
-8.21963414e-16
-2.35545198e-04
-3.73239174e-07
-2.68522984e-06
-1.44634994e-05
-4.49290248e-05
-1.50613985e-04
-2.65648617e-04
-1.55627002e-04
-2.06192536e-04
-1.35958829e-04
-9.99481872e-16
8.46437117e-04
-7.87733597e-04
-5.22781844e-04
-3.48966351e-15
1.04405284e-05
1.57593019e-04
5.39769393e-05
-4.97349780e-15
-2.06112460e-03
4.08587389e-04
1.06672698e-04
3.72965309e-15
-5.82265416e-03
1.23417801e-03
1.99056473e-04
-1.16132795e-14
3.22272377e-04
3.36117578e-16
-1.66861340e-04
3.92566821e-16
1.39587723e-04
-2.88257480e-07
-2.02138221e-06
-1.12603623e-05
-3.34705309e-05
-1.26395573e-04
-2.49070273e-04
-5.86522839e-05
5.52701910e-05
-5.14422738e-05
-1.11264370e-15
5.89716430e-04
6.35694651e-04
-2.72506697e-04
2.70840337e-15
-3.25649819e-04
-2.99084326e-04
2.01646473e-04
-7.65251157e-15
-1.37258943e-03
-9.77642252e-04
-4.79805980e-04
2.37566158e-14
7.93621335e-04
2.81063002e-03
-3.51496675e-05
1.26142935e-14
-2.26471074e-04
1.50773570e-16
-8.97467660e-05
-7.76142392e-16
2.03208221e-04
2.76142816e-09
6.08331698e-08
1.21532317e-08
1.14420155e-06
-7.24909642e-06
-3.70519078e-05
2.47808869e-05
-4.60918834e-06
-2.37063172e-06
-5.31055896e-16
8.90083265e-05
1.78433648e-05
1.25334125e-05
1.70323489e-15
-3.80299842e-04
-1.62628602e-04
-9.10347825e-05
-3.10274444e-15
-6.88883277e-04
2.23207621e-04
-2.15182016e-04
1.17152372e-14
9.19967895e-04
-2.55871461e-04
3.21927507e-04
4.54095645e-14
-1.10571990e-05
8.68287651e-16
-4.59101520e-06
-5.44571640e-16
-6.80188156e-06
3.31065307e-06
2.55034089e-05
1.28047783e-04
4.35928779e-04
1.05990219e-03
4.57469434e-04
1.28392722e-03
-4.92178003e-06
1.28459673e-04
-2.30874138e-15
1.12248829e-04
7.17427965e-05
1.71211362e-04
-4.09969347e-15
-4.95315039e-04
3.06570658e-04
-2.99552989e-04
-7.44667849e-15
5.14447768e-03
1.73248803e-04
1.53540358e-03
2.51965030e-14
-6.27503174e-04
-9.11050465e-05
1.44785973e-04
2.48303425e-14
5.29683716e-05
-3.01706511e-16
6.28913939e-05
2.52408112e-16
-1.50033712e-04
2.35770000e-05
3.48024137e-05
-2.78604760e-04
2.17052822e-04
-2.76801759e-05
6.02438116e-05
-1.39340747e-15
   *****

     End transition

 Dyson orbitals calculation:   CPU 0.08 s  wall 0.08 s

 Total ccman2 time:   CPU 11616.89 s  wall 4960.24 s


 --------------------------------------------------------------
             Orbital Energies (a.u.) and Symmetries
 --------------------------------------------------------------

 Alpha MOs, Unrestricted
 -- Occupied --                  
-20.830 -20.606 -15.738 -15.706 -11.525 -11.489 -11.416 -11.335
  1 A'    2 A'    3 A'    4 A'    5 A'    6 A'    7 A'    8 A'                 
 -1.681  -1.497  -1.389  -1.339  -1.173  -1.023  -1.015  -0.915
  9 A'   10 A'   11 A'   12 A'   13 A'   14 A'   15 A'   16 A'                 
 -0.880  -0.868  -0.814  -0.788  -0.777  -0.715  -0.712  -0.699
 17 A'   18 A'    1 A"   19 A'   20 A'   21 A'    2 A"   22 A'                 
 -0.647  -0.580  -0.556  -0.535  -0.440  -0.099
 23 A'    3 A"    4 A"   24 A'    5 A"   25 A'                                 
 -- Virtual --                   
 -0.006  -0.006   0.006   0.007   0.022   0.024   0.027   0.030
  6 A"   26 A'    7 A"   27 A'   28 A'   29 A'   30 A'    8 A"                 
  0.033   0.038   0.040   0.044   0.045   0.049   0.050   0.055
  9 A"   31 A'   32 A'   33 A'   34 A'   35 A'   10 A"   36 A'                 
  0.057   0.059   0.067   0.072   0.072   0.076   0.078   0.088
 11 A"   37 A'   38 A'   12 A"   39 A'   13 A"   40 A'   41 A'                 
  0.088   0.100   0.102   0.109   0.110   0.116   0.122   0.128
 14 A"   42 A'   43 A'   15 A"   44 A'   45 A'   46 A'   47 A'                 
  0.131   0.135   0.139   0.153   0.167   0.169   0.176   0.178
 48 A'   49 A'   50 A'   16 A"   17 A"   51 A'   52 A'   18 A"                 
  0.190   0.197   0.206   0.212   0.214   0.217   0.228   0.233
 53 A'   54 A'   55 A'   19 A"   56 A'   57 A'   58 A'   59 A'                 
  0.234   0.246   0.249   0.251   0.262   0.273   0.289   0.303
 20 A"   60 A'   21 A"   61 A'   62 A'   63 A'   64 A'   22 A"                 
  0.312   0.326   0.328   0.336   0.347   0.356   0.368   0.382
 65 A'   23 A"   66 A'   67 A'   68 A'   69 A'   70 A'   71 A'                 
  0.387   0.389   0.393   0.410   0.420   0.426   0.438   0.450
 72 A'   24 A"   73 A'   74 A'   75 A'   76 A'   77 A'   78 A'                 
  0.472   0.496   0.510   0.542   0.574   0.599   0.647   0.676
 79 A'   80 A'   81 A'   82 A'   83 A'   84 A'   85 A'   86 A'                 
  0.694   0.696   0.711   0.724   0.746   0.749   0.757   0.815
 87 A'   25 A"   26 A"   88 A'   89 A'   27 A"   28 A"   90 A'                 
  0.833   0.881   0.898   0.908   0.932   0.944   0.946   0.966
 91 A'   92 A'   93 A'   94 A'   95 A'   96 A'   97 A'   98 A'                 
  0.986   1.004   1.010   1.037   1.040   1.102   1.155   1.167
 29 A"   99 A'  100 A'   30 A"  101 A'  102 A'   31 A"   32 A"                 
  1.202   1.210   1.216   1.223   1.304   1.311   1.314   1.328
103 A'  104 A'  105 A'   33 A"  106 A'  107 A'   34 A"  108 A'                 
  1.345   1.360   1.366   1.417   1.441   1.463   1.503   1.508
 35 A"   36 A"   37 A"  109 A'   38 A"  110 A'  111 A'  112 A'                 
  1.670   1.702   1.741   1.754   1.791   1.815   1.826   1.866
113 A'  114 A'  115 A'   39 A"  116 A'   40 A"  117 A'   41 A"                 
  1.868   1.907   1.927   1.963   1.973   2.056   2.073   2.128
118 A'  119 A'  120 A'   42 A"  121 A'  122 A'  123 A'  124 A'                 
  2.143   2.148   2.214   2.231   2.268   2.277   2.457   2.480
 43 A"  125 A'  126 A'  127 A'  128 A'   44 A"  129 A'   45 A"                 
  2.506   2.556   2.586   2.664   2.743   2.757   2.776   2.840
130 A'   46 A"  131 A'   47 A"   48 A"  132 A'  133 A'  134 A'                 
  2.903   2.910   2.955   2.964   2.996   3.034   3.064   3.090
135 A'  136 A'  137 A'   49 A"  138 A'   50 A"  139 A'   51 A"                 
  3.118   3.129   3.161   3.204   3.246   3.256   3.260   3.324
140 A'   52 A"  141 A'  142 A'   53 A"   54 A"  143 A'  144 A'                 
  3.432   3.482   3.550   3.677   3.706   3.716   3.759   3.839
145 A'  146 A'   55 A"  147 A'   56 A"  148 A'  149 A'  150 A'                 
  3.882   3.912   3.958   4.039   4.153   4.230   4.293   4.341
151 A'  152 A'  153 A'  154 A'  155 A'   57 A"   58 A"  156 A'                 
  4.395   4.486   4.941   5.064   5.210   5.374   5.383   5.422
157 A'  158 A'  159 A'  160 A'  161 A'  162 A'   59 A"  163 A'                 
  5.496   5.576   5.620   5.657   5.794   5.818   6.209   6.386
164 A'   60 A"  165 A'  166 A'  167 A'  168 A'  169 A'  170 A'                 
  7.585   7.657   9.635   9.859  20.544  20.599  20.654  20.820
171 A'  172 A'  173 A'  174 A'  175 A'  176 A'  177 A'  178 A'                 
 30.114  30.157  40.642  40.859  80.093  80.140  80.199  80.352
179 A'  180 A'  181 A'  182 A'  183 A'  184 A'  185 A'  186 A'                 
116.231 116.271 158.993 159.199 321.915 321.957 322.022 322.158
187 A'  188 A'  189 A'  190 A'  191 A'  192 A'  193 A'  194 A'                 
460.329 460.367 631.696 631.8951431.4681431.5061431.5761431.696
195 A'  196 A'  197 A'  198 A'  199 A'  200 A'  201 A'  202 A'                 
*******2012.8392759.0952759.2888749.6878749.7228749.7978749.902
203 A'  204 A'  205 A'  206 A'  207 A'  208 A'  209 A'  210 A'                 
*******************************
211 A'  212 A'  213 A'  214 A'                                                 

 Beta MOs, Unrestricted
 -- Occupied --                  
-20.789 -20.606 -15.735 -15.706 -11.529 -11.489 -11.415 -11.332
  1 A'    2 A'    3 A'    4 A'    5 A'    6 A'    7 A'    8 A'                 
 -1.561  -1.493  -1.381  -1.329  -1.160  -1.006  -0.990  -0.876
  9 A'   10 A'   11 A'   12 A'   13 A'   14 A'   15 A'   16 A'                 
 -0.849  -0.826  -0.783  -0.779  -0.713  -0.702  -0.698  -0.660
 17 A'   18 A'   19 A'    1 A"   20 A'    2 A"   21 A'   22 A'                 
 -0.581  -0.546  -0.534  -0.436
  3 A"    4 A"   23 A'    5 A"                                                 
 -- Virtual --                   
 -0.085  -0.005   0.005   0.017   0.018   0.021   0.029   0.031
 24 A'    6 A"   25 A'   26 A'   27 A'    7 A"   28 A'   29 A'                 
  0.033   0.034   0.040   0.044   0.045   0.049   0.053   0.054
 30 A'    8 A"    9 A"   31 A'   32 A'   33 A'   34 A'   35 A'                 
  0.054   0.060   0.064   0.067   0.077   0.077   0.079   0.081
 10 A"   36 A'   37 A'   11 A"   38 A'   12 A"   13 A"   39 A'                 
  0.087   0.093   0.093   0.103   0.107   0.112   0.115   0.121
 40 A'   41 A'   14 A"   42 A'   43 A'   15 A"   44 A'   45 A'                 
  0.127   0.132   0.137   0.140   0.143   0.162   0.175   0.176
 46 A'   47 A'   48 A'   49 A'   50 A'   16 A"   17 A"   51 A'                 
  0.183   0.186   0.199   0.204   0.212   0.217   0.220   0.222
 52 A'   18 A"   53 A'   54 A'   55 A'   19 A"   56 A'   57 A'                 
  0.235   0.235   0.238   0.250   0.254   0.256   0.267   0.278
 20 A"   58 A'   59 A'   60 A'   21 A"   61 A'   62 A'   63 A'                 
  0.292   0.308   0.317   0.334   0.336   0.347   0.351   0.359
 64 A'   22 A"   65 A'   23 A"   66 A'   67 A'   68 A'   69 A'                 
  0.379   0.386   0.390   0.395   0.399   0.418   0.425   0.431
 70 A'   71 A'   24 A"   72 A'   73 A'   74 A'   75 A'   76 A'                 
  0.441   0.464   0.480   0.505   0.519   0.551   0.579   0.604
 77 A'   78 A'   79 A'   80 A'   81 A'   82 A'   83 A'   84 A'                 
  0.653   0.687   0.696   0.698   0.711   0.728   0.752   0.756
 85 A'   86 A'   87 A'   25 A"   26 A"   88 A'   27 A"   89 A'                 
  0.759   0.818   0.837   0.886   0.903   0.911   0.935   0.947
 28 A"   90 A'   91 A'   92 A'   93 A'   94 A'   95 A'   96 A'                 
  0.950   0.970   0.988   1.007   1.014   1.038   1.044   1.104
 97 A'   98 A'   29 A"   99 A'  100 A'   30 A"  101 A'  102 A'                 
  1.158   1.168   1.208   1.214   1.222   1.242   1.313   1.315
 31 A"   32 A"  103 A'  104 A'  105 A'   33 A"  106 A'   34 A"                 
  1.333   1.345   1.359   1.367   1.391   1.431   1.441   1.468
107 A'   35 A"   36 A"   37 A"  108 A'  109 A'   38 A"  110 A'                 
  1.506   1.513   1.676   1.708   1.746   1.754   1.804   1.816
111 A'  112 A'  113 A'  114 A'  115 A'   39 A"  116 A'   40 A"                 
  1.831   1.866   1.875   1.910   1.940   1.963   1.975   2.059
117 A'   41 A"  118 A'  119 A'  120 A'   42 A"  121 A'  122 A'                 
  2.074   2.130   2.147   2.157   2.216   2.236   2.273   2.279
123 A'  124 A'   43 A"  125 A'  126 A'  127 A'  128 A'   44 A"                 
  2.460   2.485   2.518   2.559   2.592   2.666   2.753   2.759
129 A'   45 A"  130 A'   46 A"  131 A'   47 A"   48 A"  132 A'                 
  2.783   2.854   2.905   2.934   2.956   2.993   2.999   3.086
133 A'  134 A'  135 A'  136 A'  137 A'   49 A"  138 A'   50 A"                 
  3.106   3.115   3.137   3.145   3.170   3.205   3.248   3.260
 51 A"  139 A'   52 A"  140 A'  141 A'  142 A'   53 A"   54 A"                 
  3.261   3.327   3.435   3.491   3.567   3.704   3.706   3.749
143 A'  144 A'  145 A'  146 A'   55 A"  147 A'   56 A"  148 A'                 
  3.767   3.842   3.884   3.925   3.960   4.041   4.167   4.231
149 A'  150 A'  151 A'  152 A'  153 A'  154 A'  155 A'   57 A"                 
  4.293   4.345   4.401   4.492   4.942   5.068   5.213   5.375
 58 A"  156 A'  157 A'  158 A'  159 A'  160 A'  161 A'  162 A'                 
  5.412   5.449   5.575   5.589   5.623   5.661   5.796   5.821
 59 A"  163 A'   60 A"  164 A'  165 A'  166 A'  167 A'  168 A'                 
  6.230   6.387   7.588   7.658   9.681   9.860  20.543  20.599
169 A'  170 A'  171 A'  172 A'  173 A'  174 A'  175 A'  176 A'                 
 20.655  20.821  30.115  30.157  40.663  40.859  80.092  80.140
177 A'  178 A'  179 A'  180 A'  181 A'  182 A'  183 A'  184 A'                 
 80.199  80.353 116.232 116.271 159.000 159.199 321.915 321.957
185 A'  186 A'  187 A'  188 A'  189 A'  190 A'  191 A'  192 A'                 
322.022 322.158 460.330 460.367 631.698 631.8951431.4681431.506
193 A'  194 A'  195 A'  196 A'  197 A'  198 A'  199 A'  200 A'                 
*******1431.6962012.8032012.8392759.0952759.2898749.6878749.722
201 A'  202 A'  203 A'  204 A'  205 A'  206 A'  207 A'  208 A'                 
*******8749.902********************************
209 A'  210 A'  211 A'  212 A'  213 A'  214 A'                                 
 --------------------------------------------------------------

          Ground-State Mulliken Net Atomic Charges

     Atom                 Charge (a.u.)    Spin (a.u.)
  --------------------------------------------------------
      1 C                     0.008183       0.010335
      2 H                     0.217051       0.191326
      3 H                     0.071758       0.172322
      4 H                     0.292721       0.102883
      5 C                     0.178982       0.032184
      6 O                     0.264085      -0.296020
      7 C                    -0.417760       0.104758
      8 O                     0.518688       1.115953
      9 N                    -0.521131       0.012121
     10 N                    -0.220064      -0.137701
     11 C                    -0.661788       0.658192
     12 H                     0.269275       0.033647
  --------------------------------------------------------
  Sum of atomic charges =     0.000000
  Sum of spin   charges =     2.000000

 -----------------------------------------------------------------
                    Cartesian Multipole Moments
 -----------------------------------------------------------------
    Charge (ESU x 10^10)
                -0.0000
    Dipole Moment (Debye)
         X       1.8363      Y       3.1995      Z       0.0000
       Tot       3.6890
    Quadrupole Moments (Debye-Ang)
        XX     -68.4650     XY       5.6284     YY     -70.2103
        XZ       0.0000     YZ      -0.0000     ZZ     -74.6737
    Octopole Moments (Debye-Ang^2)
       XXX     -12.9616    XXY      21.5703    XYY      -3.8008
       YYY     124.8951    XXZ       0.0000    XYZ       0.0000
       YYZ       0.0000    XZZ     -14.5160    YZZ      39.3005
       ZZZ       0.0000
    Hexadecapole Moments (Debye-Ang^3)
      XXXX   -1078.8467   XXXY      33.2380   XXYY    -387.8022
      XYYY      -8.5150   YYYY   -1207.5687   XXXZ       0.0000
      XXYZ      -0.0000   XYYZ       0.0000   YYYZ      -0.0000
      XXZZ    -270.5677   XYZZ      -2.5979   YYZZ    -295.5402
      XZZZ       0.0000   YZZZ      -0.0000   ZZZZ    -524.6211
 -----------------------------------------------------------------
Archival summary:
1\1\n-62-29-36\SP\ProcedureUnspecified\BasisUnspecified\2244(3)\malop\WedJun511:36:532019WedJun511:36:532019\0\\#,ProcedureUnspecified,BasisUnspecified,\\0,3\N\H,1,1.01081\C,1,1.37966,2,115.327\O,3,1.21479,1,124.21,2,0,0\N,3,1.3852,1,112.713,2,180,0\H,5,1.00619,3,115.142,1,-180,0\C,5,1.37008,3,123.626,1,-0,0\H,7,1.07981,5,115.516,3,180,0\C,7,1.34802,5,121.979,3,-0,0\H,9,1.07615,7,121.525,5,-180,0\C,1,1.40335,2,116.035,3,-180,0\O,11,1.21832,1,120.541,2,0,0\\HF=-412.355521\\@

 Total job time:  5039.97s(wall), 11876.86s(cpu) 
 Wed Jun  5 11:36:53 2019

======= MOLDEN-FORMATTED INPUT FILE FOLLOWS =======
[Molden Format]
[Atoms] (Angs)
  C      1    6     -0.00714236     -1.70213747     -0.00000000
  H      2    1     -2.06882847     -1.44022412      0.00000000
  H      3    1     -0.12337987     -2.77567521      0.00000000
  H      4    1      0.04651892      1.98813947     -0.00000000
  C      5    6     -1.21953563      0.40211669      0.00000000
  O      6    8     -2.25921553      1.03043814      0.00000000
  C      7    6      1.28797806      0.34644937     -0.00000000
  O      8    8      2.31273661      1.00537216     -0.00000000
  N      9    7      0.03446295      0.97739857     -0.00000000
  N     10    7     -1.17287765     -0.98229824      0.00000000
  C     11    6      1.20107039     -1.10433419     -0.00000000
  H     12    1      2.11220096     -1.67699125     -0.00000000

======= END OF MOLDEN-FORMATTED INPUT FILE =======


        *************************************************************
        *                                                           *
        *  Thank you very much for using Q-Chem.  Have a nice day.  *
        *                                                           *
        *************************************************************


