[Molden Format]
[Atoms] (Angs)
  C      1    6     -0.00714236     -1.70213747     -0.00000000
  H      2    1     -2.06882847     -1.44022412      0.00000000
  H      3    1     -0.12337987     -2.77567521      0.00000000
  H      4    1      0.04651892      1.98813947     -0.00000000
  C      5    6     -1.21953563      0.40211669      0.00000000
  O      6    8     -2.25921553      1.03043814      0.00000000
  C      7    6      1.28797806      0.34644937     -0.00000000
  O      8    8      2.31273661      1.00537216     -0.00000000
  N      9    7      0.03446295      0.97739857     -0.00000000
  N     10    7     -1.17287765     -0.98229824      0.00000000
  C     11    6      1.20107039     -1.10433419     -0.00000000
  H     12    1      2.11220096     -1.67699125     -0.00000000
[GTO]
1    0
S    1    1.000000
   4.56324000E+03    1.96665000E-03 
S    1    1.000000
   6.82024000E+02    1.52306000E-02 
S    1    1.000000
   1.54973000E+02    7.61269000E-02 
S    1    1.000000
   4.44553000E+01    2.60801000E-01 
S    1    1.000000
   1.30290000E+01    6.16462000E-01 
S    1    1.000000
   1.82773000E+00    2.21006000E-01 
SP   3    1.000000
   2.09642000E+01    1.14660000E-01   4.02487000E-02 
   4.80331000E+00    9.19999000E-01   2.37594000E-01 
   1.45933000E+00   -3.03068000E-03   8.15854000E-01 
SP   1    1.000000
   4.83456000E-01    1.00000000E+00   1.00000000E+00 
SP   1    1.000000
   1.45585000E-01    1.00000000E+00   1.00000000E+00 
SP   1    1.000000
   4.38000000E-02    1.00000000E+00   1.00000000E+00 
SP   1    1.000000
   1.31927711E-02    1.00000000E+00   1.00000000E+00 
D    1    1.000000
   6.26000000E-01    1.00000000E+00 

2    0
S    3    1.000000
   3.38650000E+01    2.54938000E-02 
   5.09479000E+00    1.90373000E-01 
   1.15879000E+00    8.52161000E-01 
S    1    1.000000
   3.25840000E-01    1.00000000E+00 
S    1    1.000000
   1.02741000E-01    1.00000000E+00 
S    1    1.000000
   3.60000000E-02    1.00000000E+00 
P    1    1.000000
   7.50000000E-01    1.00000000E+00 

3    0
S    3    1.000000
   3.38650000E+01    2.54938000E-02 
   5.09479000E+00    1.90373000E-01 
   1.15879000E+00    8.52161000E-01 
S    1    1.000000
   3.25840000E-01    1.00000000E+00 
S    1    1.000000
   1.02741000E-01    1.00000000E+00 
S    1    1.000000
   3.60000000E-02    1.00000000E+00 
P    1    1.000000
   7.50000000E-01    1.00000000E+00 

4    0
S    3    1.000000
   3.38650000E+01    2.54938000E-02 
   5.09479000E+00    1.90373000E-01 
   1.15879000E+00    8.52161000E-01 
S    1    1.000000
   3.25840000E-01    1.00000000E+00 
S    1    1.000000
   1.02741000E-01    1.00000000E+00 
S    1    1.000000
   3.60000000E-02    1.00000000E+00 
P    1    1.000000
   7.50000000E-01    1.00000000E+00 

5    0
S    1    1.000000
   4.56324000E+03    1.96665000E-03 
S    1    1.000000
   6.82024000E+02    1.52306000E-02 
S    1    1.000000
   1.54973000E+02    7.61269000E-02 
S    1    1.000000
   4.44553000E+01    2.60801000E-01 
S    1    1.000000
   1.30290000E+01    6.16462000E-01 
S    1    1.000000
   1.82773000E+00    2.21006000E-01 
SP   3    1.000000
   2.09642000E+01    1.14660000E-01   4.02487000E-02 
   4.80331000E+00    9.19999000E-01   2.37594000E-01 
   1.45933000E+00   -3.03068000E-03   8.15854000E-01 
SP   1    1.000000
   4.83456000E-01    1.00000000E+00   1.00000000E+00 
SP   1    1.000000
   1.45585000E-01    1.00000000E+00   1.00000000E+00 
SP   1    1.000000
   4.38000000E-02    1.00000000E+00   1.00000000E+00 
SP   1    1.000000
   1.31927711E-02    1.00000000E+00   1.00000000E+00 
D    1    1.000000
   6.26000000E-01    1.00000000E+00 

6    0
S    1    1.000000
   8.58850000E+03    1.89515000E-03 
S    1    1.000000
   1.29723000E+03    1.43859000E-02 
S    1    1.000000
   2.99296000E+02    7.07320000E-02 
S    1    1.000000
   8.73771000E+01    2.40001000E-01 
S    1    1.000000
   2.56789000E+01    5.94797000E-01 
S    1    1.000000
   3.74004000E+00    2.80802000E-01 
SP   3    1.000000
   4.21175000E+01    1.13889000E-01   3.65114000E-02 
   9.62837000E+00    9.20811000E-01   2.37153000E-01 
   2.85332000E+00   -3.27447000E-03   8.19702000E-01 
SP   1    1.000000
   9.05661000E-01    1.00000000E+00   1.00000000E+00 
SP   1    1.000000
   2.55611000E-01    1.00000000E+00   1.00000000E+00 
SP   1    1.000000
   8.45000000E-02    1.00000000E+00   1.00000000E+00 
SP   1    1.000000
   2.54518072E-02    1.00000000E+00   1.00000000E+00 
D    1    1.000000
   1.29200000E+00    1.00000000E+00 

7    0
S    1    1.000000
   4.56324000E+03    1.96665000E-03 
S    1    1.000000
   6.82024000E+02    1.52306000E-02 
S    1    1.000000
   1.54973000E+02    7.61269000E-02 
S    1    1.000000
   4.44553000E+01    2.60801000E-01 
S    1    1.000000
   1.30290000E+01    6.16462000E-01 
S    1    1.000000
   1.82773000E+00    2.21006000E-01 
SP   3    1.000000
   2.09642000E+01    1.14660000E-01   4.02487000E-02 
   4.80331000E+00    9.19999000E-01   2.37594000E-01 
   1.45933000E+00   -3.03068000E-03   8.15854000E-01 
SP   1    1.000000
   4.83456000E-01    1.00000000E+00   1.00000000E+00 
SP   1    1.000000
   1.45585000E-01    1.00000000E+00   1.00000000E+00 
SP   1    1.000000
   4.38000000E-02    1.00000000E+00   1.00000000E+00 
SP   1    1.000000
   1.31927711E-02    1.00000000E+00   1.00000000E+00 
D    1    1.000000
   6.26000000E-01    1.00000000E+00 

8    0
S    1    1.000000
   8.58850000E+03    1.89515000E-03 
S    1    1.000000
   1.29723000E+03    1.43859000E-02 
S    1    1.000000
   2.99296000E+02    7.07320000E-02 
S    1    1.000000
   8.73771000E+01    2.40001000E-01 
S    1    1.000000
   2.56789000E+01    5.94797000E-01 
S    1    1.000000
   3.74004000E+00    2.80802000E-01 
SP   3    1.000000
   4.21175000E+01    1.13889000E-01   3.65114000E-02 
   9.62837000E+00    9.20811000E-01   2.37153000E-01 
   2.85332000E+00   -3.27447000E-03   8.19702000E-01 
SP   1    1.000000
   9.05661000E-01    1.00000000E+00   1.00000000E+00 
SP   1    1.000000
   2.55611000E-01    1.00000000E+00   1.00000000E+00 
SP   1    1.000000
   8.45000000E-02    1.00000000E+00   1.00000000E+00 
SP   1    1.000000
   2.54518072E-02    1.00000000E+00   1.00000000E+00 
D    1    1.000000
   1.29200000E+00    1.00000000E+00 

9    0
S    1    1.000000
   6.29348000E+03    1.96979000E-03 
S    1    1.000000
   9.49044000E+02    1.49613000E-02 
S    1    1.000000
   2.18776000E+02    7.35006000E-02 
S    1    1.000000
   6.36916000E+01    2.48937000E-01 
S    1    1.000000
   1.88282000E+01    6.02460000E-01 
S    1    1.000000
   2.72023000E+00    2.56202000E-01 
SP   3    1.000000
   3.06331000E+01    1.11906000E-01   3.83119000E-02 
   7.02614000E+00    9.21666000E-01   2.37403000E-01 
   2.11205000E+00   -2.56919000E-03   8.17592000E-01 
SP   1    1.000000
   6.84009000E-01    1.00000000E+00   1.00000000E+00 
SP   1    1.000000
   2.00878000E-01    1.00000000E+00   1.00000000E+00 
SP   1    1.000000
   6.39000000E-02    1.00000000E+00   1.00000000E+00 
SP   1    1.000000
   1.92469880E-02    1.00000000E+00   1.00000000E+00 
D    1    1.000000
   9.13000000E-01    1.00000000E+00 

10    0
S    1    1.000000
   6.29348000E+03    1.96979000E-03 
S    1    1.000000
   9.49044000E+02    1.49613000E-02 
S    1    1.000000
   2.18776000E+02    7.35006000E-02 
S    1    1.000000
   6.36916000E+01    2.48937000E-01 
S    1    1.000000
   1.88282000E+01    6.02460000E-01 
S    1    1.000000
   2.72023000E+00    2.56202000E-01 
SP   3    1.000000
   3.06331000E+01    1.11906000E-01   3.83119000E-02 
   7.02614000E+00    9.21666000E-01   2.37403000E-01 
   2.11205000E+00   -2.56919000E-03   8.17592000E-01 
SP   1    1.000000
   6.84009000E-01    1.00000000E+00   1.00000000E+00 
SP   1    1.000000
   2.00878000E-01    1.00000000E+00   1.00000000E+00 
SP   1    1.000000
   6.39000000E-02    1.00000000E+00   1.00000000E+00 
SP   1    1.000000
   1.92469880E-02    1.00000000E+00   1.00000000E+00 
D    1    1.000000
   9.13000000E-01    1.00000000E+00 

11    0
S    1    1.000000
   4.56324000E+03    1.96665000E-03 
S    1    1.000000
   6.82024000E+02    1.52306000E-02 
S    1    1.000000
   1.54973000E+02    7.61269000E-02 
S    1    1.000000
   4.44553000E+01    2.60801000E-01 
S    1    1.000000
   1.30290000E+01    6.16462000E-01 
S    1    1.000000
   1.82773000E+00    2.21006000E-01 
SP   3    1.000000
   2.09642000E+01    1.14660000E-01   4.02487000E-02 
   4.80331000E+00    9.19999000E-01   2.37594000E-01 
   1.45933000E+00   -3.03068000E-03   8.15854000E-01 
SP   1    1.000000
   4.83456000E-01    1.00000000E+00   1.00000000E+00 
SP   1    1.000000
   1.45585000E-01    1.00000000E+00   1.00000000E+00 
SP   1    1.000000
   4.38000000E-02    1.00000000E+00   1.00000000E+00 
SP   1    1.000000
   1.31927711E-02    1.00000000E+00   1.00000000E+00 
D    1    1.000000
   6.26000000E-01    1.00000000E+00 

12    0
S    3    1.000000
   3.38650000E+01    2.54938000E-02 
   5.09479000E+00    1.90373000E-01 
   1.15879000E+00    8.52161000E-01 
S    1    1.000000
   3.25840000E-01    1.00000000E+00 
S    1    1.000000
   1.02741000E-01    1.00000000E+00 
S    1    1.000000
   3.60000000E-02    1.00000000E+00 
P    1    1.000000
   7.50000000E-01    1.00000000E+00 

[MO]
Sym=X
Ene=0.792663
Spin=Alpha
Occup=1
1    0.00110925148
2    0.00858741477
3    0.0428376125
4    0.147075252
5    0.347435981
6    0.126691131
7    0.465260368
8    -0.00111372204
9    0.000315521152
10    -7.03902489e-16
11    0.00167751823
12    0.00106888068
13    -6.07754243e-05
14    2.53684114e-15
15    0.00146922556
16    -0.000306220952
17    0.000854689831
18    -9.00716477e-15
19    0.00085423847
20    -0.000705848374
21    0.000543869359
22    8.34344576e-14
23    -0.000154142241
24    7.70763866e-05
25    -3.57786748e-05
26    -7.15981406e-14
27    0.000368289926
28    -1.30249838e-16
29    -0.000237781155
30    -1.42555845e-15
31    9.13689824e-05
32    2.92012928e-05
33    5.12364125e-05
34    4.07952572e-05
35    -9.47190596e-05
36    4.67924653e-05
37    1.53509543e-05
38    1.45305722e-15
39    0.000380381242
40    0.000465525071
41    0.000236129631
42    0.000130590955
43    4.24331507e-05
44    0.000308747507
45    -6.87369222e-17
46    1.2993837e-05
47    -5.61159874e-05
48    0.000243676584
49    0.000251602527
50    5.48137954e-06
51    4.11430326e-06
52    1.46544804e-15
53    3.17837989e-08
54    2.78187033e-07
55    1.16011343e-06
56    4.84436088e-06
57    2.1185483e-06
58    -4.3934883e-05
59    3.87862411e-05
60    -5.37037399e-06
61    2.1320874e-05
62    6.68240071e-15
63    0.000111018829
64    1.97774728e-05
65    -8.44456388e-05
66    8.3268435e-15
67    0.000225737507
68    -0.00064376269
69    0.0004045836
70    1.32700816e-14
71    0.000683538968
72    -0.000322635794
73    0.000572988045
74    1.0082934e-13
75    0.000499515435
76    0.000172423372
77    7.41568815e-06
78    7.45579696e-14
79    -1.80820003e-05
80    9.61483914e-16
81    4.08707928e-06
82    -2.08892331e-15
83    -4.40124407e-05
84    -2.47643635e-09
85    7.33663067e-09
86    -1.53475803e-07
87    1.85898808e-07
88    -6.4153046e-06
89    -2.60184767e-05
90    1.44446012e-05
91    -4.20657354e-06
92    1.94481529e-06
93    4.81621767e-15
94    7.05226781e-05
95    2.68166245e-05
96    -2.60299741e-05
97    7.1434136e-15
98    -0.000307714581
99    -0.000158595496
100    8.81650085e-05
101    1.47790531e-14
102    -0.0010401102
103    -0.000165243441
104    0.000138922362
105    -1.19378954e-15
106    -0.00135898002
107    -0.000274649692
108    5.05455099e-05
109    -2.77667021e-14
110    -2.26794056e-06
111    -1.36833359e-15
112    7.36027661e-07
113    1.41387367e-15
114    -5.34974332e-06
115    1.49462754e-05
116    0.000115758529
117    0.000577095414
118    0.00198273465
119    0.00467050623
120    0.00164632819
121    0.00630409218
122    -2.91401076e-06
123    3.23850609e-05
124    -2.06534028e-15
125    0.000117893205
126    -2.00180506e-05
127    -0.000123796078
128    -3.869223e-15
129    0.000235478873
130    -0.000195751038
131    -0.000114796904
132    -1.02340963e-14
133    -0.000185769737
134    0.000258647787
135    0.000269807334
136    9.29468785e-14
137    3.67780999e-05
138    0.000186700381
139    -7.14194526e-05
140    -4.08600746e-14
141    4.05604311e-05
142    5.55043254e-17
143    -9.87957987e-06
144    -2.0006602e-15
145    -5.27232939e-05
146    -5.14897021e-09
147    -3.92054549e-08
148    -1.95102554e-07
149    -6.59631947e-07
150    -1.54620013e-06
151    -8.44297185e-07
152    -3.92031249e-06
153    -2.0182638e-06
154    7.98823599e-07
155    -1.48904576e-15
156    1.28825012e-06
157    -1.51427583e-05
158    -2.5635755e-05
159    -6.38425735e-15
160    0.000105313173
161    3.75419192e-06
162    1.88409128e-06
163    1.40215643e-15
164    -0.000113216211
165    -6.81083111e-06
166    -1.7078489e-05
167    -2.67709466e-14
168    -1.57392834e-05
169    2.19718877e-05
170    -4.73350628e-05
171    -4.78544383e-15
172    7.85157559e-06
173    2.80449308e-16
174    -2.86444663e-06
175    1.13704898e-16
176    -5.13661666e-06
177    -2.60558147e-09
178    2.23206248e-08
179    -1.95195281e-07
180    5.05817531e-07
181    -9.3998002e-06
182    -4.02110121e-05
183    2.32200107e-05
184    7.4492529e-07
185    7.53994058e-06
186    3.62756615e-15
187    7.77616727e-05
188    4.4673228e-06
189    -3.49939806e-05
190    -1.80123393e-15
191    3.25052621e-05
192    -5.09780128e-05
193    1.90290773e-05
194    2.22542372e-14
195    6.81701216e-05
196    0.000155068034
197    -0.000543214789
198    -6.84783528e-14
199    0.000761485227
200    -0.000286950894
201    -0.00012560306
202    -7.36007769e-14
203    2.42028785e-06
204    -3.05434834e-16
205    -4.52469126e-06
206    -1.86460208e-15
207    9.25899702e-06
208    -2.79073675e-07
209    -1.95141959e-06
210    -1.09312072e-05
211    -3.24222765e-05
212    -0.00012524838
213    -0.00027433626
214    -5.49975002e-05
215    6.75108495e-05
216    -4.06860572e-05
217    5.20207072e-15
218    0.000673321819
219    0.000733286951
220    -0.000443807078
221    -2.60832576e-15
222    -9.30441841e-05
223    -1.70035352e-05
224    8.30969926e-05
225    2.82176059e-14
226    -0.00131379317
227    -0.000445759022
228    0.000370994011
229    -6.71245155e-14
230    -0.000571233928
231    -0.000320271233
232    6.05262546e-05
233    -3.14329474e-14
234    -0.000328533358
235    8.72729991e-16
236    -0.000130318711
237    -1.68135312e-16
238    0.000183185046
239    6.04195301e-08
240    3.13453432e-07
241    2.53869776e-06
242    4.21251528e-06
243    4.93704499e-05
244    9.05463731e-05
245    -0.000122424064
246    -0.000150451332
247    -7.20775394e-05
248    -1.41892976e-15
249    0.000173168738
250    -0.000238137904
251    -9.94518021e-05
252    -5.85064665e-15
253    -0.000803981898
254    0.000593969159
255    -0.000268896782
256    5.62516508e-15
257    0.001222013
258    -2.76211743e-05
259    -0.000613309528
260    -1.05326905e-13
261    -0.000212376862
262    -0.000168888805
263    -0.000103683679
264    6.03085574e-14
265    0.000164443258
266    -1.86294828e-16
267    5.0680156e-05
268    -1.17974702e-15
269    0.000145725664
270    2.59843853e-05
271    2.32467642e-05
272    -0.000362544865
273    -0.000281351551
274    -8.58705785e-05
275    -1.39368033e-05
276    -1.84488658e-15
[5D]