[Molden Format]
[Atoms] (Angs)
  C      1    6     -0.00714236     -1.70213747     -0.00000000
  H      2    1     -2.06882847     -1.44022412      0.00000000
  H      3    1     -0.12337987     -2.77567521      0.00000000
  H      4    1      0.04651892      1.98813947     -0.00000000
  C      5    6     -1.21953563      0.40211669      0.00000000
  O      6    8     -2.25921553      1.03043814      0.00000000
  C      7    6      1.28797806      0.34644937     -0.00000000
  O      8    8      2.31273661      1.00537216     -0.00000000
  N      9    7      0.03446295      0.97739857     -0.00000000
  N     10    7     -1.17287765     -0.98229824      0.00000000
  C     11    6      1.20107039     -1.10433419     -0.00000000
  H     12    1      2.11220096     -1.67699125     -0.00000000
[GTO]
1    0
S    1    1.000000
   4.56324000E+03    1.96665000E-03 
S    1    1.000000
   6.82024000E+02    1.52306000E-02 
S    1    1.000000
   1.54973000E+02    7.61269000E-02 
S    1    1.000000
   4.44553000E+01    2.60801000E-01 
S    1    1.000000
   1.30290000E+01    6.16462000E-01 
S    1    1.000000
   1.82773000E+00    2.21006000E-01 
SP   3    1.000000
   2.09642000E+01    1.14660000E-01   4.02487000E-02 
   4.80331000E+00    9.19999000E-01   2.37594000E-01 
   1.45933000E+00   -3.03068000E-03   8.15854000E-01 
SP   1    1.000000
   4.83456000E-01    1.00000000E+00   1.00000000E+00 
SP   1    1.000000
   1.45585000E-01    1.00000000E+00   1.00000000E+00 
SP   1    1.000000
   4.38000000E-02    1.00000000E+00   1.00000000E+00 
SP   1    1.000000
   1.31927711E-02    1.00000000E+00   1.00000000E+00 
D    1    1.000000
   6.26000000E-01    1.00000000E+00 

2    0
S    3    1.000000
   3.38650000E+01    2.54938000E-02 
   5.09479000E+00    1.90373000E-01 
   1.15879000E+00    8.52161000E-01 
S    1    1.000000
   3.25840000E-01    1.00000000E+00 
S    1    1.000000
   1.02741000E-01    1.00000000E+00 
S    1    1.000000
   3.60000000E-02    1.00000000E+00 
P    1    1.000000
   7.50000000E-01    1.00000000E+00 

3    0
S    3    1.000000
   3.38650000E+01    2.54938000E-02 
   5.09479000E+00    1.90373000E-01 
   1.15879000E+00    8.52161000E-01 
S    1    1.000000
   3.25840000E-01    1.00000000E+00 
S    1    1.000000
   1.02741000E-01    1.00000000E+00 
S    1    1.000000
   3.60000000E-02    1.00000000E+00 
P    1    1.000000
   7.50000000E-01    1.00000000E+00 

4    0
S    3    1.000000
   3.38650000E+01    2.54938000E-02 
   5.09479000E+00    1.90373000E-01 
   1.15879000E+00    8.52161000E-01 
S    1    1.000000
   3.25840000E-01    1.00000000E+00 
S    1    1.000000
   1.02741000E-01    1.00000000E+00 
S    1    1.000000
   3.60000000E-02    1.00000000E+00 
P    1    1.000000
   7.50000000E-01    1.00000000E+00 

5    0
S    1    1.000000
   4.56324000E+03    1.96665000E-03 
S    1    1.000000
   6.82024000E+02    1.52306000E-02 
S    1    1.000000
   1.54973000E+02    7.61269000E-02 
S    1    1.000000
   4.44553000E+01    2.60801000E-01 
S    1    1.000000
   1.30290000E+01    6.16462000E-01 
S    1    1.000000
   1.82773000E+00    2.21006000E-01 
SP   3    1.000000
   2.09642000E+01    1.14660000E-01   4.02487000E-02 
   4.80331000E+00    9.19999000E-01   2.37594000E-01 
   1.45933000E+00   -3.03068000E-03   8.15854000E-01 
SP   1    1.000000
   4.83456000E-01    1.00000000E+00   1.00000000E+00 
SP   1    1.000000
   1.45585000E-01    1.00000000E+00   1.00000000E+00 
SP   1    1.000000
   4.38000000E-02    1.00000000E+00   1.00000000E+00 
SP   1    1.000000
   1.31927711E-02    1.00000000E+00   1.00000000E+00 
D    1    1.000000
   6.26000000E-01    1.00000000E+00 

6    0
S    1    1.000000
   8.58850000E+03    1.89515000E-03 
S    1    1.000000
   1.29723000E+03    1.43859000E-02 
S    1    1.000000
   2.99296000E+02    7.07320000E-02 
S    1    1.000000
   8.73771000E+01    2.40001000E-01 
S    1    1.000000
   2.56789000E+01    5.94797000E-01 
S    1    1.000000
   3.74004000E+00    2.80802000E-01 
SP   3    1.000000
   4.21175000E+01    1.13889000E-01   3.65114000E-02 
   9.62837000E+00    9.20811000E-01   2.37153000E-01 
   2.85332000E+00   -3.27447000E-03   8.19702000E-01 
SP   1    1.000000
   9.05661000E-01    1.00000000E+00   1.00000000E+00 
SP   1    1.000000
   2.55611000E-01    1.00000000E+00   1.00000000E+00 
SP   1    1.000000
   8.45000000E-02    1.00000000E+00   1.00000000E+00 
SP   1    1.000000
   2.54518072E-02    1.00000000E+00   1.00000000E+00 
D    1    1.000000
   1.29200000E+00    1.00000000E+00 

7    0
S    1    1.000000
   4.56324000E+03    1.96665000E-03 
S    1    1.000000
   6.82024000E+02    1.52306000E-02 
S    1    1.000000
   1.54973000E+02    7.61269000E-02 
S    1    1.000000
   4.44553000E+01    2.60801000E-01 
S    1    1.000000
   1.30290000E+01    6.16462000E-01 
S    1    1.000000
   1.82773000E+00    2.21006000E-01 
SP   3    1.000000
   2.09642000E+01    1.14660000E-01   4.02487000E-02 
   4.80331000E+00    9.19999000E-01   2.37594000E-01 
   1.45933000E+00   -3.03068000E-03   8.15854000E-01 
SP   1    1.000000
   4.83456000E-01    1.00000000E+00   1.00000000E+00 
SP   1    1.000000
   1.45585000E-01    1.00000000E+00   1.00000000E+00 
SP   1    1.000000
   4.38000000E-02    1.00000000E+00   1.00000000E+00 
SP   1    1.000000
   1.31927711E-02    1.00000000E+00   1.00000000E+00 
D    1    1.000000
   6.26000000E-01    1.00000000E+00 

8    0
S    1    1.000000
   8.58850000E+03    1.89515000E-03 
S    1    1.000000
   1.29723000E+03    1.43859000E-02 
S    1    1.000000
   2.99296000E+02    7.07320000E-02 
S    1    1.000000
   8.73771000E+01    2.40001000E-01 
S    1    1.000000
   2.56789000E+01    5.94797000E-01 
S    1    1.000000
   3.74004000E+00    2.80802000E-01 
SP   3    1.000000
   4.21175000E+01    1.13889000E-01   3.65114000E-02 
   9.62837000E+00    9.20811000E-01   2.37153000E-01 
   2.85332000E+00   -3.27447000E-03   8.19702000E-01 
SP   1    1.000000
   9.05661000E-01    1.00000000E+00   1.00000000E+00 
SP   1    1.000000
   2.55611000E-01    1.00000000E+00   1.00000000E+00 
SP   1    1.000000
   8.45000000E-02    1.00000000E+00   1.00000000E+00 
SP   1    1.000000
   2.54518072E-02    1.00000000E+00   1.00000000E+00 
D    1    1.000000
   1.29200000E+00    1.00000000E+00 

9    0
S    1    1.000000
   6.29348000E+03    1.96979000E-03 
S    1    1.000000
   9.49044000E+02    1.49613000E-02 
S    1    1.000000
   2.18776000E+02    7.35006000E-02 
S    1    1.000000
   6.36916000E+01    2.48937000E-01 
S    1    1.000000
   1.88282000E+01    6.02460000E-01 
S    1    1.000000
   2.72023000E+00    2.56202000E-01 
SP   3    1.000000
   3.06331000E+01    1.11906000E-01   3.83119000E-02 
   7.02614000E+00    9.21666000E-01   2.37403000E-01 
   2.11205000E+00   -2.56919000E-03   8.17592000E-01 
SP   1    1.000000
   6.84009000E-01    1.00000000E+00   1.00000000E+00 
SP   1    1.000000
   2.00878000E-01    1.00000000E+00   1.00000000E+00 
SP   1    1.000000
   6.39000000E-02    1.00000000E+00   1.00000000E+00 
SP   1    1.000000
   1.92469880E-02    1.00000000E+00   1.00000000E+00 
D    1    1.000000
   9.13000000E-01    1.00000000E+00 

10    0
S    1    1.000000
   6.29348000E+03    1.96979000E-03 
S    1    1.000000
   9.49044000E+02    1.49613000E-02 
S    1    1.000000
   2.18776000E+02    7.35006000E-02 
S    1    1.000000
   6.36916000E+01    2.48937000E-01 
S    1    1.000000
   1.88282000E+01    6.02460000E-01 
S    1    1.000000
   2.72023000E+00    2.56202000E-01 
SP   3    1.000000
   3.06331000E+01    1.11906000E-01   3.83119000E-02 
   7.02614000E+00    9.21666000E-01   2.37403000E-01 
   2.11205000E+00   -2.56919000E-03   8.17592000E-01 
SP   1    1.000000
   6.84009000E-01    1.00000000E+00   1.00000000E+00 
SP   1    1.000000
   2.00878000E-01    1.00000000E+00   1.00000000E+00 
SP   1    1.000000
   6.39000000E-02    1.00000000E+00   1.00000000E+00 
SP   1    1.000000
   1.92469880E-02    1.00000000E+00   1.00000000E+00 
D    1    1.000000
   9.13000000E-01    1.00000000E+00 

11    0
S    1    1.000000
   4.56324000E+03    1.96665000E-03 
S    1    1.000000
   6.82024000E+02    1.52306000E-02 
S    1    1.000000
   1.54973000E+02    7.61269000E-02 
S    1    1.000000
   4.44553000E+01    2.60801000E-01 
S    1    1.000000
   1.30290000E+01    6.16462000E-01 
S    1    1.000000
   1.82773000E+00    2.21006000E-01 
SP   3    1.000000
   2.09642000E+01    1.14660000E-01   4.02487000E-02 
   4.80331000E+00    9.19999000E-01   2.37594000E-01 
   1.45933000E+00   -3.03068000E-03   8.15854000E-01 
SP   1    1.000000
   4.83456000E-01    1.00000000E+00   1.00000000E+00 
SP   1    1.000000
   1.45585000E-01    1.00000000E+00   1.00000000E+00 
SP   1    1.000000
   4.38000000E-02    1.00000000E+00   1.00000000E+00 
SP   1    1.000000
   1.31927711E-02    1.00000000E+00   1.00000000E+00 
D    1    1.000000
   6.26000000E-01    1.00000000E+00 

12    0
S    3    1.000000
   3.38650000E+01    2.54938000E-02 
   5.09479000E+00    1.90373000E-01 
   1.15879000E+00    8.52161000E-01 
S    1    1.000000
   3.25840000E-01    1.00000000E+00 
S    1    1.000000
   1.02741000E-01    1.00000000E+00 
S    1    1.000000
   3.60000000E-02    1.00000000E+00 
P    1    1.000000
   7.50000000E-01    1.00000000E+00 

[MO]
Sym=X
Ene=3.1e-05
Spin=Alpha
Occup=1
1    0.000412687933
2    0.00319484291
3    0.0159373543
4    0.0547169023
5    0.129264969
6    0.0470819614
7    0.173040159
8    -0.000330421951
9    0.000162675836
10    4.64001961e-16
11    0.00104467258
12    0.000868872726
13    0.000245912553
14    -1.52304813e-15
15    -0.000173504903
16    -0.000380406754
17    -3.91655769e-05
18    -8.89702082e-16
19    -0.0028143772
20    -0.000413603766
21    -0.0012433506
22    5.60228027e-14
23    -0.000226746277
24    0.000106237714
25    -0.000328839437
26    -1.09410161e-13
27    0.000394781479
28    1.50618863e-17
29    -0.00010585957
30    -2.16862166e-16
31    0.00018923761
32    1.92349219e-05
33    3.53646837e-05
34    0.0002078503
35    0.000367850223
36    2.56632636e-05
37    -2.22561493e-06
38    5.08340075e-16
39    0.000160760926
40    0.000272796362
41    -0.000221701323
42    -0.000525960194
43    6.75283648e-05
44    0.00017365808
45    1.40852031e-16
46    3.16809196e-05
47    3.34480733e-05
48    0.000196743998
49    0.000139835438
50    -5.58334395e-07
51    -2.21249224e-05
52    -3.79881725e-16
53    -9.71555921e-05
54    -0.000752080421
55    -0.00375216846
56    -0.0128806297
57    -0.0304441261
58    -0.0111294932
59    -0.0407246201
60    -7.16157829e-05
61    4.94224011e-05
62    1.36318415e-15
63    -5.74423636e-06
64    0.000109829331
65    -8.34612585e-05
66    4.06607045e-16
67    -0.000491956452
68    -0.000899985642
69    0.000491108715
70    2.651361e-15
71    0.000694283357
72    -0.000281608829
73    -4.26368082e-05
74    8.30751486e-14
75    2.74412476e-05
76    -9.4071915e-05
77    -8.6791599e-06
78    7.28752151e-14
79    2.32745613e-05
80    1.20421596e-16
81    3.06466199e-05
82    -6.82220143e-16
83    -3.7027744e-06
84    2.28459047e-08
85    1.88775404e-07
86    8.33395355e-07
87    3.22308245e-06
88    3.79393945e-06
89    -8.5475542e-06
90    2.67752452e-05
91    -2.26337532e-05
92    1.29960619e-05
93    7.98343275e-16
94    1.12149687e-05
95    -1.5643404e-05
96    1.37740116e-05
97    1.83690047e-15
98    -0.000267980258
99    -0.000121036179
100    7.72953291e-05
101    3.09408925e-15
102    -0.00124863667
103    -0.000320445911
104    0.000163504616
105    -3.61226594e-15
106    -0.000644329353
107    -2.3339706e-05
108    0.000209585161
109    -3.93095097e-14
110    2.281095e-05
111    -5.11653285e-17
112    1.21215948e-05
113    4.19077891e-16
114    -9.2240188e-06
115    0.000662026033
116    0.00512510403
117    0.0255666381
118    0.0877757163
119    0.20735818
120    0.0753337744
121    0.277740384
122    -0.000445173194
123    0.000247415162
124    -1.86601056e-15
125    0.00139439019
126    0.00044855762
127    -0.000638883017
128    -1.67534452e-16
129    0.000556812499
130    8.7515519e-05
131    0.000837719114
132    -9.25632765e-15
133    -0.00307451912
134    0.000779746835
135    0.00235521605
136    6.52554931e-14
137    -0.000409625755
138    -0.000144070224
139    1.22934989e-05
140    -4.60960426e-14
141    0.00025585035
142    -1.75002946e-16
143    -0.00020599074
144    -3.29221668e-16
145    -0.000301401354
146    2.0756141e-07
147    1.6649519e-06
148    7.43481379e-06
149    2.77352418e-05
150    4.73456122e-05
151    -7.59415714e-05
152    9.65074796e-05
153    -0.00011760437
154    -6.4814216e-05
155    -2.70325646e-16
156    0.000431626125
157    -0.000365989713
158    -0.000259821009
159    -4.28004756e-15
160    -0.000244608909
161    0.000220482338
162    6.54844078e-05
163    1.44463047e-15
164    -0.000793595775
165    2.00911806e-05
166    -9.40118095e-05
167    -1.08548909e-14
168    -0.00259543354
169    0.000612303712
170    8.36680762e-05
171    -3.91871782e-15
172    0.00017502454
173    3.30910885e-16
174    -7.01538138e-05
175    1.79130762e-16
176    4.75099306e-05
177    -1.24944027e-08
178    4.93851984e-08
179    -8.4842955e-07
180    1.08008431e-06
181    -3.50572285e-05
182    -0.000164445384
183    6.35949357e-05
184    1.63815235e-05
185    -6.27380801e-06
186    1.48253057e-15
187    0.000354912486
188    0.000530130034
189    -0.000209348957
190    -3.79699597e-15
191    0.00025356129
192    -0.000269935204
193    -0.000240343414
194    1.45228715e-14
195    -0.000219768944
196    -0.00076556328
197    -0.000449523171
198    -5.21820441e-14
199    0.00105438862
200    0.000702349415
201    -0.000132732387
202    -4.88004627e-14
203    -0.000202722274
204    4.51712508e-17
205    -6.96210527e-05
206    -2.44111384e-16
207    0.000124937593
208    2.83809097e-07
209    2.27067399e-06
210    1.03035225e-05
211    3.79703392e-05
212    6.30820148e-05
213    -8.8689797e-05
214    0.000176178861
215    1.53361949e-06
216    -1.72087981e-05
217    2.33538173e-15
218    0.000286883323
219    0.000359980448
220    -0.000251779808
221    -4.71847269e-15
222    0.00017691488
223    8.24791386e-05
224    0.000200686583
225    1.66641967e-14
226    0.000311648931
227    0.000391850291
228    0.000392628915
229    -5.84440515e-14
230    0.000614515703
231    -8.78839169e-05
232    0.000363693286
233    1.08699049e-14
234    -0.000144328167
235    1.80085245e-16
236    -5.02273135e-05
237    -5.46295598e-17
238    0.000122332516
239    0.000782326798
240    0.00605648576
241    0.0302120602
242    0.103730146
243    0.245050736
244    0.0896288487
245    0.327924633
246    -0.000185926813
247    0.000189673062
248    2.55633102e-16
249    0.00151734389
250    -6.78594585e-05
251    0.00014690275
252    -4.08701892e-15
253    0.000881631509
254    -0.000298676586
255    0.000159816436
256    7.5365774e-15
257    0.00775647166
258    -0.000960376012
259    0.00138265134
260    -7.28877147e-14
261    0.000483823695
262    5.64066839e-05
263    0.000338799743
264    1.04286453e-13
265    0.000127383519
266    1.47484533e-16
267    -6.15185689e-05
268    -4.07840711e-16
269    -5.46550834e-05
270    0.000290617764
271    0.000375438953
272    -4.207572e-05
273    0.000394849401
274    -0.000240143769
275    0.00014490539
276    -7.37624366e-16
[5D]