[Molden Format]
[Atoms] (Angs)
  C      1    6     -0.00714236     -1.70213747     -0.00000000
  H      2    1     -2.06882847     -1.44022412      0.00000000
  H      3    1     -0.12337987     -2.77567521      0.00000000
  H      4    1      0.04651892      1.98813947     -0.00000000
  C      5    6     -1.21953563      0.40211669      0.00000000
  O      6    8     -2.25921553      1.03043814      0.00000000
  C      7    6      1.28797806      0.34644937     -0.00000000
  O      8    8      2.31273661      1.00537216     -0.00000000
  N      9    7      0.03446295      0.97739857     -0.00000000
  N     10    7     -1.17287765     -0.98229824      0.00000000
  C     11    6      1.20107039     -1.10433419     -0.00000000
  H     12    1      2.11220096     -1.67699125     -0.00000000
[GTO]
1    0
S    1    1.000000
   4.56324000E+03    1.96665000E-03 
S    1    1.000000
   6.82024000E+02    1.52306000E-02 
S    1    1.000000
   1.54973000E+02    7.61269000E-02 
S    1    1.000000
   4.44553000E+01    2.60801000E-01 
S    1    1.000000
   1.30290000E+01    6.16462000E-01 
S    1    1.000000
   1.82773000E+00    2.21006000E-01 
SP   3    1.000000
   2.09642000E+01    1.14660000E-01   4.02487000E-02 
   4.80331000E+00    9.19999000E-01   2.37594000E-01 
   1.45933000E+00   -3.03068000E-03   8.15854000E-01 
SP   1    1.000000
   4.83456000E-01    1.00000000E+00   1.00000000E+00 
SP   1    1.000000
   1.45585000E-01    1.00000000E+00   1.00000000E+00 
SP   1    1.000000
   4.38000000E-02    1.00000000E+00   1.00000000E+00 
SP   1    1.000000
   1.31927711E-02    1.00000000E+00   1.00000000E+00 
D    1    1.000000
   6.26000000E-01    1.00000000E+00 

2    0
S    3    1.000000
   3.38650000E+01    2.54938000E-02 
   5.09479000E+00    1.90373000E-01 
   1.15879000E+00    8.52161000E-01 
S    1    1.000000
   3.25840000E-01    1.00000000E+00 
S    1    1.000000
   1.02741000E-01    1.00000000E+00 
S    1    1.000000
   3.60000000E-02    1.00000000E+00 
P    1    1.000000
   7.50000000E-01    1.00000000E+00 

3    0
S    3    1.000000
   3.38650000E+01    2.54938000E-02 
   5.09479000E+00    1.90373000E-01 
   1.15879000E+00    8.52161000E-01 
S    1    1.000000
   3.25840000E-01    1.00000000E+00 
S    1    1.000000
   1.02741000E-01    1.00000000E+00 
S    1    1.000000
   3.60000000E-02    1.00000000E+00 
P    1    1.000000
   7.50000000E-01    1.00000000E+00 

4    0
S    3    1.000000
   3.38650000E+01    2.54938000E-02 
   5.09479000E+00    1.90373000E-01 
   1.15879000E+00    8.52161000E-01 
S    1    1.000000
   3.25840000E-01    1.00000000E+00 
S    1    1.000000
   1.02741000E-01    1.00000000E+00 
S    1    1.000000
   3.60000000E-02    1.00000000E+00 
P    1    1.000000
   7.50000000E-01    1.00000000E+00 

5    0
S    1    1.000000
   4.56324000E+03    1.96665000E-03 
S    1    1.000000
   6.82024000E+02    1.52306000E-02 
S    1    1.000000
   1.54973000E+02    7.61269000E-02 
S    1    1.000000
   4.44553000E+01    2.60801000E-01 
S    1    1.000000
   1.30290000E+01    6.16462000E-01 
S    1    1.000000
   1.82773000E+00    2.21006000E-01 
SP   3    1.000000
   2.09642000E+01    1.14660000E-01   4.02487000E-02 
   4.80331000E+00    9.19999000E-01   2.37594000E-01 
   1.45933000E+00   -3.03068000E-03   8.15854000E-01 
SP   1    1.000000
   4.83456000E-01    1.00000000E+00   1.00000000E+00 
SP   1    1.000000
   1.45585000E-01    1.00000000E+00   1.00000000E+00 
SP   1    1.000000
   4.38000000E-02    1.00000000E+00   1.00000000E+00 
SP   1    1.000000
   1.31927711E-02    1.00000000E+00   1.00000000E+00 
D    1    1.000000
   6.26000000E-01    1.00000000E+00 

6    0
S    1    1.000000
   8.58850000E+03    1.89515000E-03 
S    1    1.000000
   1.29723000E+03    1.43859000E-02 
S    1    1.000000
   2.99296000E+02    7.07320000E-02 
S    1    1.000000
   8.73771000E+01    2.40001000E-01 
S    1    1.000000
   2.56789000E+01    5.94797000E-01 
S    1    1.000000
   3.74004000E+00    2.80802000E-01 
SP   3    1.000000
   4.21175000E+01    1.13889000E-01   3.65114000E-02 
   9.62837000E+00    9.20811000E-01   2.37153000E-01 
   2.85332000E+00   -3.27447000E-03   8.19702000E-01 
SP   1    1.000000
   9.05661000E-01    1.00000000E+00   1.00000000E+00 
SP   1    1.000000
   2.55611000E-01    1.00000000E+00   1.00000000E+00 
SP   1    1.000000
   8.45000000E-02    1.00000000E+00   1.00000000E+00 
SP   1    1.000000
   2.54518072E-02    1.00000000E+00   1.00000000E+00 
D    1    1.000000
   1.29200000E+00    1.00000000E+00 

7    0
S    1    1.000000
   4.56324000E+03    1.96665000E-03 
S    1    1.000000
   6.82024000E+02    1.52306000E-02 
S    1    1.000000
   1.54973000E+02    7.61269000E-02 
S    1    1.000000
   4.44553000E+01    2.60801000E-01 
S    1    1.000000
   1.30290000E+01    6.16462000E-01 
S    1    1.000000
   1.82773000E+00    2.21006000E-01 
SP   3    1.000000
   2.09642000E+01    1.14660000E-01   4.02487000E-02 
   4.80331000E+00    9.19999000E-01   2.37594000E-01 
   1.45933000E+00   -3.03068000E-03   8.15854000E-01 
SP   1    1.000000
   4.83456000E-01    1.00000000E+00   1.00000000E+00 
SP   1    1.000000
   1.45585000E-01    1.00000000E+00   1.00000000E+00 
SP   1    1.000000
   4.38000000E-02    1.00000000E+00   1.00000000E+00 
SP   1    1.000000
   1.31927711E-02    1.00000000E+00   1.00000000E+00 
D    1    1.000000
   6.26000000E-01    1.00000000E+00 

8    0
S    1    1.000000
   8.58850000E+03    1.89515000E-03 
S    1    1.000000
   1.29723000E+03    1.43859000E-02 
S    1    1.000000
   2.99296000E+02    7.07320000E-02 
S    1    1.000000
   8.73771000E+01    2.40001000E-01 
S    1    1.000000
   2.56789000E+01    5.94797000E-01 
S    1    1.000000
   3.74004000E+00    2.80802000E-01 
SP   3    1.000000
   4.21175000E+01    1.13889000E-01   3.65114000E-02 
   9.62837000E+00    9.20811000E-01   2.37153000E-01 
   2.85332000E+00   -3.27447000E-03   8.19702000E-01 
SP   1    1.000000
   9.05661000E-01    1.00000000E+00   1.00000000E+00 
SP   1    1.000000
   2.55611000E-01    1.00000000E+00   1.00000000E+00 
SP   1    1.000000
   8.45000000E-02    1.00000000E+00   1.00000000E+00 
SP   1    1.000000
   2.54518072E-02    1.00000000E+00   1.00000000E+00 
D    1    1.000000
   1.29200000E+00    1.00000000E+00 

9    0
S    1    1.000000
   6.29348000E+03    1.96979000E-03 
S    1    1.000000
   9.49044000E+02    1.49613000E-02 
S    1    1.000000
   2.18776000E+02    7.35006000E-02 
S    1    1.000000
   6.36916000E+01    2.48937000E-01 
S    1    1.000000
   1.88282000E+01    6.02460000E-01 
S    1    1.000000
   2.72023000E+00    2.56202000E-01 
SP   3    1.000000
   3.06331000E+01    1.11906000E-01   3.83119000E-02 
   7.02614000E+00    9.21666000E-01   2.37403000E-01 
   2.11205000E+00   -2.56919000E-03   8.17592000E-01 
SP   1    1.000000
   6.84009000E-01    1.00000000E+00   1.00000000E+00 
SP   1    1.000000
   2.00878000E-01    1.00000000E+00   1.00000000E+00 
SP   1    1.000000
   6.39000000E-02    1.00000000E+00   1.00000000E+00 
SP   1    1.000000
   1.92469880E-02    1.00000000E+00   1.00000000E+00 
D    1    1.000000
   9.13000000E-01    1.00000000E+00 

10    0
S    1    1.000000
   6.29348000E+03    1.96979000E-03 
S    1    1.000000
   9.49044000E+02    1.49613000E-02 
S    1    1.000000
   2.18776000E+02    7.35006000E-02 
S    1    1.000000
   6.36916000E+01    2.48937000E-01 
S    1    1.000000
   1.88282000E+01    6.02460000E-01 
S    1    1.000000
   2.72023000E+00    2.56202000E-01 
SP   3    1.000000
   3.06331000E+01    1.11906000E-01   3.83119000E-02 
   7.02614000E+00    9.21666000E-01   2.37403000E-01 
   2.11205000E+00   -2.56919000E-03   8.17592000E-01 
SP   1    1.000000
   6.84009000E-01    1.00000000E+00   1.00000000E+00 
SP   1    1.000000
   2.00878000E-01    1.00000000E+00   1.00000000E+00 
SP   1    1.000000
   6.39000000E-02    1.00000000E+00   1.00000000E+00 
SP   1    1.000000
   1.92469880E-02    1.00000000E+00   1.00000000E+00 
D    1    1.000000
   9.13000000E-01    1.00000000E+00 

11    0
S    1    1.000000
   4.56324000E+03    1.96665000E-03 
S    1    1.000000
   6.82024000E+02    1.52306000E-02 
S    1    1.000000
   1.54973000E+02    7.61269000E-02 
S    1    1.000000
   4.44553000E+01    2.60801000E-01 
S    1    1.000000
   1.30290000E+01    6.16462000E-01 
S    1    1.000000
   1.82773000E+00    2.21006000E-01 
SP   3    1.000000
   2.09642000E+01    1.14660000E-01   4.02487000E-02 
   4.80331000E+00    9.19999000E-01   2.37594000E-01 
   1.45933000E+00   -3.03068000E-03   8.15854000E-01 
SP   1    1.000000
   4.83456000E-01    1.00000000E+00   1.00000000E+00 
SP   1    1.000000
   1.45585000E-01    1.00000000E+00   1.00000000E+00 
SP   1    1.000000
   4.38000000E-02    1.00000000E+00   1.00000000E+00 
SP   1    1.000000
   1.31927711E-02    1.00000000E+00   1.00000000E+00 
D    1    1.000000
   6.26000000E-01    1.00000000E+00 

12    0
S    3    1.000000
   3.38650000E+01    2.54938000E-02 
   5.09479000E+00    1.90373000E-01 
   1.15879000E+00    8.52161000E-01 
S    1    1.000000
   3.25840000E-01    1.00000000E+00 
S    1    1.000000
   1.02741000E-01    1.00000000E+00 
S    1    1.000000
   3.60000000E-02    1.00000000E+00 
P    1    1.000000
   7.50000000E-01    1.00000000E+00 

[MO]
Sym=X
Ene=0.542697
Spin=Alpha
Occup=1
1    0.00110920736
2    0.00858707416
3    0.0428359089
4    0.147069433
5    0.347422029
6    0.126687039
7    0.465243222
8    -0.00111566114
9    0.000314445298
10    -8.80275418e-16
11    0.00166863005
12    0.00105913366
13    -6.62468848e-05
14    2.34491196e-15
15    0.00148536789
16    -0.000300947794
17    0.000863415016
18    -8.55523543e-15
19    0.000908074691
20    -0.000703571143
21    0.000570092417
22    8.6485092e-14
23    -0.000150871246
24    7.62844835e-05
25    -3.00529762e-05
26    -6.32951412e-14
27    0.000363043212
28    -3.21705202e-16
29    -0.00023741679
30    8.80519114e-17
31    8.79905217e-05
32    2.90136942e-05
33    5.06511254e-05
34    3.75845811e-05
35    -0.000102178644
36    4.65424852e-05
37    1.54609965e-05
38    -2.60167218e-16
39    0.000379914795
40    0.000463755169
41    0.00024282897
42    0.000141450837
43    4.1384859e-05
44    0.000307512532
45    -1.3649444e-16
46    1.25140233e-05
47    -5.71467659e-05
48    0.000242196484
49    0.000249441903
50    5.48769992e-06
51    4.52063058e-06
52    7.20632525e-16
53    -3.30830674e-08
54    -2.24607569e-07
55    -1.34361601e-06
56    -3.76892612e-06
57    -1.80612168e-05
58    -5.05818746e-05
59    1.11457471e-05
60    -5.20487429e-06
61    2.12884053e-05
62    2.22877339e-15
63    0.000109194552
64    1.92450763e-05
65    -8.42558188e-05
66    2.19794416e-16
67    0.000235423844
68    -0.000632294182
69    0.000398603582
70    4.70629086e-15
71    0.000677520446
72    -0.000318298573
73    0.000576358063
74    9.84529539e-14
75    0.00050196233
76    0.000174989142
77    7.1462343e-06
78    7.92393996e-14
79    -1.81647186e-05
80    5.0955793e-16
81    3.9353448e-06
82    -6.78433269e-16
83    -4.43923354e-05
84    -2.29781591e-09
85    8.45541757e-09
86    -1.46243998e-07
87    2.0401043e-07
88    -6.30752609e-06
89    -2.57542093e-05
90    1.43865069e-05
91    -4.16863431e-06
92    1.93451835e-06
93    1.51365918e-15
94    6.98523258e-05
95    2.64165004e-05
96    -2.59166548e-05
97    1.43218614e-15
98    -0.000304693326
99    -0.000157159726
100    8.7230926e-05
101    6.80205928e-15
102    -0.00102521075
103    -0.000161279443
104    0.000137059384
105    -7.70625712e-15
106    -0.00135520999
107    -0.00027584768
108    4.71718691e-05
109    -2.64232449e-14
110    -2.28813502e-06
111    -7.70434319e-16
112    7.12939251e-07
113    4.68190748e-16
114    -5.41622154e-06
115    6.1185351e-06
116    4.74182505e-05
117    0.000236179345
118    0.00081230066
119    0.00190553044
120    0.000642369325
121    0.00260076842
122    3.07749142e-06
123    2.97106924e-05
124    2.64729563e-16
125    9.62514193e-05
126    -2.58636043e-05
127    -0.000111913261
128    4.04325495e-16
129    0.000232846359
130    -0.0002015754
131    -0.000132444688
132    -4.07524751e-15
133    -0.0001378634
134    0.00024508701
135    0.00023394295
136    9.9340363e-14
137    4.36489084e-05
138    0.000190128395
139    -7.17812135e-05
140    -3.22929463e-14
141    3.69708939e-05
142    -1.47845304e-16
143    -6.71674116e-06
144    -3.39325499e-16
145    -4.68036493e-05
146    -3.96544089e-09
147    -3.16002703e-08
148    -1.46310046e-07
149    -5.32704242e-07
150    -8.80498126e-07
151    1.00950737e-06
152    -3.59349498e-06
153    -5.0101706e-07
154    1.52522794e-06
155    5.52336836e-16
156    -4.98851074e-06
157    -9.98694848e-06
158    -2.19985265e-05
159    -2.73783057e-15
160    0.000110498919
161    -5.07368063e-08
162    9.3421374e-07
163    7.14085306e-15
164    -9.71319755e-05
165    -8.11314003e-06
166    -1.63299638e-05
167    -1.90190025e-14
168    3.04708518e-05
169    1.15609972e-05
170    -4.94712379e-05
171    3.80749923e-15
172    5.36492395e-06
173    -8.19444522e-17
174    -1.92596273e-06
175    -2.83502031e-16
176    -5.65437834e-06
177    -6.43412027e-09
178    -9.00335964e-09
179    -3.32253471e-07
180    -1.88367204e-08
181    -1.00993384e-05
182    -3.82266926e-05
183    2.05520101e-05
184    7.67858934e-07
185    7.6299856e-06
186    2.3660912e-15
187    7.23682302e-05
188    -2.41482617e-06
189    -3.17541511e-05
190    -3.88059988e-15
191    2.75669275e-05
192    -4.66273256e-05
193    2.37419681e-05
194    1.97490757e-14
195    6.78536798e-05
196    0.00016711451
197    -0.000538293558
198    -6.66555548e-14
199    0.00074652581
200    -0.000301361533
201    -0.000123256797
202    -6.69153815e-14
203    5.09226497e-06
204    -2.37812722e-16
205    -3.46031564e-06
206    -3.915939e-16
207    7.26576559e-06
208    -2.39154879e-07
209    -1.64856736e-06
210    -9.43951998e-06
211    -2.73889761e-05
212    -0.000112801819
213    -0.000268058657
214    -3.8664712e-05
215    6.79884428e-05
216    -4.0809383e-05
217    2.90667121e-15
218    0.000671940793
219    0.000731532214
220    -0.000443227265
221    -6.71294984e-15
222    -9.76662826e-05
223    -1.92281948e-05
224    7.98519055e-05
225    2.23305657e-14
226    -0.00132991303
227    -0.000455908222
228    0.00036622393
229    -6.86199981e-14
230    -0.000585862787
231    -0.000320761843
232    5.41757261e-05
233    -2.69747955e-14
234    -0.000328023507
235    5.5441345e-17
236    -0.000130089707
237    1.70646673e-16
238    0.00018259198
239    -1.72874403e-05
240    -0.000133988818
241    -0.000667402764
242    -0.00229601147
243    -0.00538427768
244    -0.0018963846
245    -0.00739553874
246    -0.000147586102
247    -7.64098914e-05
248    3.1207201e-16
249    0.000142303279
250    -0.000238072986
251    -0.000101036119
252    -2.5384358e-15
253    -0.000831437671
254    0.000605972875
255    -0.000276179595
256    1.05529823e-14
257    0.00110187437
258    -9.69714078e-06
259    -0.0006404966
260    -9.74761504e-14
261    -0.000221457068
262    -0.000171153638
263    -0.0001100565
264    6.66282847e-14
265    0.000163102189
266    4.72164111e-16
267    5.23432983e-05
268    -6.56457799e-16
269    0.000146666813
270    1.98690775e-05
271    1.54733706e-05
272    -0.000365542899
273    -0.000290834827
274    -8.1409131e-05
275    -1.69085107e-05
276    -6.47314584e-16
[5D]