[Molden Format]
[Atoms] (Angs)
  C      1    6     -0.00714236     -1.70213747     -0.00000000
  H      2    1     -2.06882847     -1.44022412      0.00000000
  H      3    1     -0.12337987     -2.77567521      0.00000000
  H      4    1      0.04651892      1.98813947     -0.00000000
  C      5    6     -1.21953563      0.40211669      0.00000000
  O      6    8     -2.25921553      1.03043814      0.00000000
  C      7    6      1.28797806      0.34644937     -0.00000000
  O      8    8      2.31273661      1.00537216     -0.00000000
  N      9    7      0.03446295      0.97739857     -0.00000000
  N     10    7     -1.17287765     -0.98229824      0.00000000
  C     11    6      1.20107039     -1.10433419     -0.00000000
  H     12    1      2.11220096     -1.67699125     -0.00000000
[GTO]
1    0
S    1    1.000000
   4.56324000E+03    1.96665000E-03 
S    1    1.000000
   6.82024000E+02    1.52306000E-02 
S    1    1.000000
   1.54973000E+02    7.61269000E-02 
S    1    1.000000
   4.44553000E+01    2.60801000E-01 
S    1    1.000000
   1.30290000E+01    6.16462000E-01 
S    1    1.000000
   1.82773000E+00    2.21006000E-01 
SP   3    1.000000
   2.09642000E+01    1.14660000E-01   4.02487000E-02 
   4.80331000E+00    9.19999000E-01   2.37594000E-01 
   1.45933000E+00   -3.03068000E-03   8.15854000E-01 
SP   1    1.000000
   4.83456000E-01    1.00000000E+00   1.00000000E+00 
SP   1    1.000000
   1.45585000E-01    1.00000000E+00   1.00000000E+00 
SP   1    1.000000
   4.38000000E-02    1.00000000E+00   1.00000000E+00 
SP   1    1.000000
   1.31927711E-02    1.00000000E+00   1.00000000E+00 
D    1    1.000000
   6.26000000E-01    1.00000000E+00 

2    0
S    3    1.000000
   3.38650000E+01    2.54938000E-02 
   5.09479000E+00    1.90373000E-01 
   1.15879000E+00    8.52161000E-01 
S    1    1.000000
   3.25840000E-01    1.00000000E+00 
S    1    1.000000
   1.02741000E-01    1.00000000E+00 
S    1    1.000000
   3.60000000E-02    1.00000000E+00 
P    1    1.000000
   7.50000000E-01    1.00000000E+00 

3    0
S    3    1.000000
   3.38650000E+01    2.54938000E-02 
   5.09479000E+00    1.90373000E-01 
   1.15879000E+00    8.52161000E-01 
S    1    1.000000
   3.25840000E-01    1.00000000E+00 
S    1    1.000000
   1.02741000E-01    1.00000000E+00 
S    1    1.000000
   3.60000000E-02    1.00000000E+00 
P    1    1.000000
   7.50000000E-01    1.00000000E+00 

4    0
S    3    1.000000
   3.38650000E+01    2.54938000E-02 
   5.09479000E+00    1.90373000E-01 
   1.15879000E+00    8.52161000E-01 
S    1    1.000000
   3.25840000E-01    1.00000000E+00 
S    1    1.000000
   1.02741000E-01    1.00000000E+00 
S    1    1.000000
   3.60000000E-02    1.00000000E+00 
P    1    1.000000
   7.50000000E-01    1.00000000E+00 

5    0
S    1    1.000000
   4.56324000E+03    1.96665000E-03 
S    1    1.000000
   6.82024000E+02    1.52306000E-02 
S    1    1.000000
   1.54973000E+02    7.61269000E-02 
S    1    1.000000
   4.44553000E+01    2.60801000E-01 
S    1    1.000000
   1.30290000E+01    6.16462000E-01 
S    1    1.000000
   1.82773000E+00    2.21006000E-01 
SP   3    1.000000
   2.09642000E+01    1.14660000E-01   4.02487000E-02 
   4.80331000E+00    9.19999000E-01   2.37594000E-01 
   1.45933000E+00   -3.03068000E-03   8.15854000E-01 
SP   1    1.000000
   4.83456000E-01    1.00000000E+00   1.00000000E+00 
SP   1    1.000000
   1.45585000E-01    1.00000000E+00   1.00000000E+00 
SP   1    1.000000
   4.38000000E-02    1.00000000E+00   1.00000000E+00 
SP   1    1.000000
   1.31927711E-02    1.00000000E+00   1.00000000E+00 
D    1    1.000000
   6.26000000E-01    1.00000000E+00 

6    0
S    1    1.000000
   8.58850000E+03    1.89515000E-03 
S    1    1.000000
   1.29723000E+03    1.43859000E-02 
S    1    1.000000
   2.99296000E+02    7.07320000E-02 
S    1    1.000000
   8.73771000E+01    2.40001000E-01 
S    1    1.000000
   2.56789000E+01    5.94797000E-01 
S    1    1.000000
   3.74004000E+00    2.80802000E-01 
SP   3    1.000000
   4.21175000E+01    1.13889000E-01   3.65114000E-02 
   9.62837000E+00    9.20811000E-01   2.37153000E-01 
   2.85332000E+00   -3.27447000E-03   8.19702000E-01 
SP   1    1.000000
   9.05661000E-01    1.00000000E+00   1.00000000E+00 
SP   1    1.000000
   2.55611000E-01    1.00000000E+00   1.00000000E+00 
SP   1    1.000000
   8.45000000E-02    1.00000000E+00   1.00000000E+00 
SP   1    1.000000
   2.54518072E-02    1.00000000E+00   1.00000000E+00 
D    1    1.000000
   1.29200000E+00    1.00000000E+00 

7    0
S    1    1.000000
   4.56324000E+03    1.96665000E-03 
S    1    1.000000
   6.82024000E+02    1.52306000E-02 
S    1    1.000000
   1.54973000E+02    7.61269000E-02 
S    1    1.000000
   4.44553000E+01    2.60801000E-01 
S    1    1.000000
   1.30290000E+01    6.16462000E-01 
S    1    1.000000
   1.82773000E+00    2.21006000E-01 
SP   3    1.000000
   2.09642000E+01    1.14660000E-01   4.02487000E-02 
   4.80331000E+00    9.19999000E-01   2.37594000E-01 
   1.45933000E+00   -3.03068000E-03   8.15854000E-01 
SP   1    1.000000
   4.83456000E-01    1.00000000E+00   1.00000000E+00 
SP   1    1.000000
   1.45585000E-01    1.00000000E+00   1.00000000E+00 
SP   1    1.000000
   4.38000000E-02    1.00000000E+00   1.00000000E+00 
SP   1    1.000000
   1.31927711E-02    1.00000000E+00   1.00000000E+00 
D    1    1.000000
   6.26000000E-01    1.00000000E+00 

8    0
S    1    1.000000
   8.58850000E+03    1.89515000E-03 
S    1    1.000000
   1.29723000E+03    1.43859000E-02 
S    1    1.000000
   2.99296000E+02    7.07320000E-02 
S    1    1.000000
   8.73771000E+01    2.40001000E-01 
S    1    1.000000
   2.56789000E+01    5.94797000E-01 
S    1    1.000000
   3.74004000E+00    2.80802000E-01 
SP   3    1.000000
   4.21175000E+01    1.13889000E-01   3.65114000E-02 
   9.62837000E+00    9.20811000E-01   2.37153000E-01 
   2.85332000E+00   -3.27447000E-03   8.19702000E-01 
SP   1    1.000000
   9.05661000E-01    1.00000000E+00   1.00000000E+00 
SP   1    1.000000
   2.55611000E-01    1.00000000E+00   1.00000000E+00 
SP   1    1.000000
   8.45000000E-02    1.00000000E+00   1.00000000E+00 
SP   1    1.000000
   2.54518072E-02    1.00000000E+00   1.00000000E+00 
D    1    1.000000
   1.29200000E+00    1.00000000E+00 

9    0
S    1    1.000000
   6.29348000E+03    1.96979000E-03 
S    1    1.000000
   9.49044000E+02    1.49613000E-02 
S    1    1.000000
   2.18776000E+02    7.35006000E-02 
S    1    1.000000
   6.36916000E+01    2.48937000E-01 
S    1    1.000000
   1.88282000E+01    6.02460000E-01 
S    1    1.000000
   2.72023000E+00    2.56202000E-01 
SP   3    1.000000
   3.06331000E+01    1.11906000E-01   3.83119000E-02 
   7.02614000E+00    9.21666000E-01   2.37403000E-01 
   2.11205000E+00   -2.56919000E-03   8.17592000E-01 
SP   1    1.000000
   6.84009000E-01    1.00000000E+00   1.00000000E+00 
SP   1    1.000000
   2.00878000E-01    1.00000000E+00   1.00000000E+00 
SP   1    1.000000
   6.39000000E-02    1.00000000E+00   1.00000000E+00 
SP   1    1.000000
   1.92469880E-02    1.00000000E+00   1.00000000E+00 
D    1    1.000000
   9.13000000E-01    1.00000000E+00 

10    0
S    1    1.000000
   6.29348000E+03    1.96979000E-03 
S    1    1.000000
   9.49044000E+02    1.49613000E-02 
S    1    1.000000
   2.18776000E+02    7.35006000E-02 
S    1    1.000000
   6.36916000E+01    2.48937000E-01 
S    1    1.000000
   1.88282000E+01    6.02460000E-01 
S    1    1.000000
   2.72023000E+00    2.56202000E-01 
SP   3    1.000000
   3.06331000E+01    1.11906000E-01   3.83119000E-02 
   7.02614000E+00    9.21666000E-01   2.37403000E-01 
   2.11205000E+00   -2.56919000E-03   8.17592000E-01 
SP   1    1.000000
   6.84009000E-01    1.00000000E+00   1.00000000E+00 
SP   1    1.000000
   2.00878000E-01    1.00000000E+00   1.00000000E+00 
SP   1    1.000000
   6.39000000E-02    1.00000000E+00   1.00000000E+00 
SP   1    1.000000
   1.92469880E-02    1.00000000E+00   1.00000000E+00 
D    1    1.000000
   9.13000000E-01    1.00000000E+00 

11    0
S    1    1.000000
   4.56324000E+03    1.96665000E-03 
S    1    1.000000
   6.82024000E+02    1.52306000E-02 
S    1    1.000000
   1.54973000E+02    7.61269000E-02 
S    1    1.000000
   4.44553000E+01    2.60801000E-01 
S    1    1.000000
   1.30290000E+01    6.16462000E-01 
S    1    1.000000
   1.82773000E+00    2.21006000E-01 
SP   3    1.000000
   2.09642000E+01    1.14660000E-01   4.02487000E-02 
   4.80331000E+00    9.19999000E-01   2.37594000E-01 
   1.45933000E+00   -3.03068000E-03   8.15854000E-01 
SP   1    1.000000
   4.83456000E-01    1.00000000E+00   1.00000000E+00 
SP   1    1.000000
   1.45585000E-01    1.00000000E+00   1.00000000E+00 
SP   1    1.000000
   4.38000000E-02    1.00000000E+00   1.00000000E+00 
SP   1    1.000000
   1.31927711E-02    1.00000000E+00   1.00000000E+00 
D    1    1.000000
   6.26000000E-01    1.00000000E+00 

12    0
S    3    1.000000
   3.38650000E+01    2.54938000E-02 
   5.09479000E+00    1.90373000E-01 
   1.15879000E+00    8.52161000E-01 
S    1    1.000000
   3.25840000E-01    1.00000000E+00 
S    1    1.000000
   1.02741000E-01    1.00000000E+00 
S    1    1.000000
   3.60000000E-02    1.00000000E+00 
P    1    1.000000
   7.50000000E-01    1.00000000E+00 

[MO]
Sym=X
Ene=0.146052
Spin=Alpha
Occup=1
1    -1.12294114e-05
2    -8.70132371e-05
3    -0.000433636867
4    -0.00149127301
5    -0.003504314
6    -0.00131750063
7    -0.00481069937
8    0.000146840255
9    7.24362821e-05
10    4.35954657e-16
11    0.000487921755
12    0.000549321728
13    0.000298942045
14    -1.43929613e-15
15    -0.00100999753
16    -0.000285580748
17    -0.000623129145
18    -7.26534157e-16
19    -0.00257078892
20    -0.000127489512
21    -0.00137299551
22    5.85691266e-14
23    -0.000219855151
24    1.54397967e-06
25    -0.0002576233
26    -6.93711959e-14
27    0.000292662544
28    -3.00318261e-16
29    -2.05381117e-05
30    -7.84311831e-16
31    0.000208699891
32    6.7123463e-06
33    5.68797639e-05
34    9.59276734e-05
35    0.000312718876
36    1.48403772e-05
37    -4.85831969e-06
38    1.4413981e-15
39    2.5175119e-05
40    6.1651714e-05
41    -0.00041232468
42    -0.000691221627
43    5.80356538e-05
44    6.52438936e-05
45    1.63559549e-17
46    1.26313173e-05
47    3.98944817e-05
48    2.36799722e-05
49    0.000254239306
50    5.83108451e-06
51    -4.53487033e-06
52    -1.1124228e-15
53    1.49425829e-08
54    1.40562348e-07
55    5.21573096e-07
56    2.48967397e-06
57    -6.73964775e-07
58    -2.56866735e-05
59    2.21551093e-05
60    -3.88791826e-06
61    4.1503238e-06
62    2.02330647e-15
63    7.16892318e-05
64    9.80644086e-06
65    -1.47437815e-05
66    1.73524827e-16
67    -0.000606996523
68    -0.000481705087
69    0.000261603937
70    5.46884839e-15
71    8.09030876e-05
72    -0.000204312247
73    -9.00396457e-05
74    8.17474915e-14
75    8.36437341e-05
76    -7.15330353e-05
77    4.58990941e-05
78    6.33878455e-14
79    3.65097145e-06
80    -5.06061938e-16
81    9.49221089e-06
82    -1.21070978e-15
83    1.52039412e-06
84    -4.74134031e-10
85    4.40041068e-09
86    -3.6093468e-08
87    9.27356505e-08
88    -1.89054595e-06
89    -8.05053102e-06
90    4.72970363e-06
91    -2.59547248e-06
92    6.83459768e-07
93    8.18315692e-16
94    2.09592913e-05
95    1.30958214e-05
96    -4.97785866e-06
97    2.60337242e-15
98    -9.74191005e-05
99    -4.64930533e-05
100    2.50218512e-05
101    3.55982061e-15
102    -0.000547282444
103    -0.000131366284
104    8.63144733e-05
105    -3.69725173e-15
106    -0.000111777201
107    5.49342302e-05
108    0.000107546476
109    -2.74854769e-14
110    -3.95860197e-07
111    -2.27427517e-16
112    1.18402828e-06
113    4.63697812e-16
114    1.1796837e-06
115    -5.45038467e-06
116    -4.21678018e-05
117    -0.000210650637
118    -0.000722722736
119    -0.00171954796
120    -0.000752593732
121    -0.00229295363
122    -3.14835287e-06
123    -8.19782491e-05
124    -4.26194878e-15
125    0.000546982768
126    -3.92558178e-05
127    -0.000634042373
128    -3.8261229e-15
129    -0.000618593431
130    0.000522323039
131    0.000917390529
132    -1.40399809e-14
133    -0.0018636877
134    0.000785834667
135    0.00105258282
136    7.1323917e-14
137    -0.000309209866
138    -6.94368065e-05
139    1.66040004e-06
140    -4.45292398e-14
141    5.70766313e-05
142    -3.18168252e-16
143    -7.14694541e-05
144    -3.92047983e-16
145    -0.000352740482
146    5.45144034e-09
147    7.74861485e-08
148    1.25526192e-07
149    1.38597343e-06
150    -6.26135389e-06
151    -3.50805592e-05
152    2.73565211e-05
153    8.52418414e-06
154    2.41136373e-05
155    -2.02181415e-15
156    7.09283905e-05
157    -4.26414631e-05
158    -4.13495708e-05
159    -5.70941344e-15
160    -0.000196478387
161    0.00012552898
162    1.40287379e-06
163    -3.10843199e-15
164    -0.000837747977
165    0.000119160025
166    4.89565568e-05
167    -1.59323625e-14
168    -0.0018186047
169    0.000361400432
170    0.0001037155
171    -3.04077121e-15
172    2.71682775e-05
173    6.59844975e-16
174    -1.11084581e-06
175    6.73444036e-16
176    -2.54275904e-05
177    7.78313825e-09
178    1.0271665e-07
179    1.96000627e-07
180    1.85565165e-06
181    -6.69463368e-06
182    -4.10776994e-05
183    3.20221509e-05
184    -2.41618966e-05
185    1.42776348e-05
186    1.13301621e-15
187    4.76452829e-05
188    8.55875335e-05
189    -3.6784362e-05
190    -7.01556574e-15
191    0.000289260627
192    -0.000195233246
193    -0.000220767549
194    1.52646307e-14
195    0.000661913589
196    -0.000252734883
197    -0.000298636659
198    -6.19906089e-14
199    0.000722408558
200    0.00059075763
201    -0.00019490446
202    -4.32959178e-14
203    -3.38332892e-05
204    2.63009323e-16
205    -4.12667128e-06
206    -7.74542596e-16
207    1.5647165e-05
208    1.60593868e-09
209    5.93826653e-08
210    -4.31332217e-08
211    1.15311871e-06
212    -9.20501378e-06
213    -4.35526436e-05
214    3.10248118e-05
215    -2.73882552e-05
216    8.95449624e-06
217    3.19419571e-15
218    5.19003966e-05
219    8.85809873e-05
220    -3.86847988e-05
221    -2.49378923e-15
222    0.000301776215
223    0.000155830359
224    0.000188613988
225    1.60027142e-14
226    0.000995887675
227    0.000422316476
228    0.000262515468
229    -5.30952595e-14
230    0.000569121969
231    4.86924246e-05
232    0.00022403778
233    -1.22641018e-14
234    -2.35242495e-05
235    2.58841941e-17
236    -1.04702722e-05
237    -2.37362996e-16
238    3.86110528e-05
239    0.00110907621
240    0.00858618077
241    0.0428304161
242    0.147057732
243    0.347379739
244    0.127045272
245    0.465007305
246    -0.000180636809
247    0.000232221398
248    -6.69699161e-16
249    0.00182152059
250    -3.92610252e-05
251    -0.000148957167
252    -6.15660863e-15
253    0.00186839384
254    -0.00080065717
255    0.000609290189
256    4.93977974e-15
257    0.00459932742
258    -0.00101470926
259    0.00101478499
260    -7.9579331e-14
261    0.00026473014
262    9.71081528e-05
263    0.000222961745
264    7.86919522e-14
265    6.5563043e-05
266    -6.2149591e-16
267    -9.57337244e-05
268    -2.43704058e-16
269    8.37392146e-05
270    0.000378131537
271    0.000450155881
272    0.00028860165
273    0.000473706277
274    -0.000265613119
275    0.000153250177
276    -1.02357767e-15
[5D]