[Molden Format]
[Atoms] (Angs)
  C      1    6     -0.00714236     -1.70213747     -0.00000000
  H      2    1     -2.06882847     -1.44022412      0.00000000
  H      3    1     -0.12337987     -2.77567521      0.00000000
  H      4    1      0.04651892      1.98813947     -0.00000000
  C      5    6     -1.21953563      0.40211669      0.00000000
  O      6    8     -2.25921553      1.03043814      0.00000000
  C      7    6      1.28797806      0.34644937     -0.00000000
  O      8    8      2.31273661      1.00537216     -0.00000000
  N      9    7      0.03446295      0.97739857     -0.00000000
  N     10    7     -1.17287765     -0.98229824      0.00000000
  C     11    6      1.20107039     -1.10433419     -0.00000000
  H     12    1      2.11220096     -1.67699125     -0.00000000
[GTO]
1    0
S    1    1.000000
   4.56324000E+03    1.96665000E-03 
S    1    1.000000
   6.82024000E+02    1.52306000E-02 
S    1    1.000000
   1.54973000E+02    7.61269000E-02 
S    1    1.000000
   4.44553000E+01    2.60801000E-01 
S    1    1.000000
   1.30290000E+01    6.16462000E-01 
S    1    1.000000
   1.82773000E+00    2.21006000E-01 
SP   3    1.000000
   2.09642000E+01    1.14660000E-01   4.02487000E-02 
   4.80331000E+00    9.19999000E-01   2.37594000E-01 
   1.45933000E+00   -3.03068000E-03   8.15854000E-01 
SP   1    1.000000
   4.83456000E-01    1.00000000E+00   1.00000000E+00 
SP   1    1.000000
   1.45585000E-01    1.00000000E+00   1.00000000E+00 
SP   1    1.000000
   4.38000000E-02    1.00000000E+00   1.00000000E+00 
SP   1    1.000000
   1.31927711E-02    1.00000000E+00   1.00000000E+00 
D    1    1.000000
   6.26000000E-01    1.00000000E+00 

2    0
S    3    1.000000
   3.38650000E+01    2.54938000E-02 
   5.09479000E+00    1.90373000E-01 
   1.15879000E+00    8.52161000E-01 
S    1    1.000000
   3.25840000E-01    1.00000000E+00 
S    1    1.000000
   1.02741000E-01    1.00000000E+00 
S    1    1.000000
   3.60000000E-02    1.00000000E+00 
P    1    1.000000
   7.50000000E-01    1.00000000E+00 

3    0
S    3    1.000000
   3.38650000E+01    2.54938000E-02 
   5.09479000E+00    1.90373000E-01 
   1.15879000E+00    8.52161000E-01 
S    1    1.000000
   3.25840000E-01    1.00000000E+00 
S    1    1.000000
   1.02741000E-01    1.00000000E+00 
S    1    1.000000
   3.60000000E-02    1.00000000E+00 
P    1    1.000000
   7.50000000E-01    1.00000000E+00 

4    0
S    3    1.000000
   3.38650000E+01    2.54938000E-02 
   5.09479000E+00    1.90373000E-01 
   1.15879000E+00    8.52161000E-01 
S    1    1.000000
   3.25840000E-01    1.00000000E+00 
S    1    1.000000
   1.02741000E-01    1.00000000E+00 
S    1    1.000000
   3.60000000E-02    1.00000000E+00 
P    1    1.000000
   7.50000000E-01    1.00000000E+00 

5    0
S    1    1.000000
   4.56324000E+03    1.96665000E-03 
S    1    1.000000
   6.82024000E+02    1.52306000E-02 
S    1    1.000000
   1.54973000E+02    7.61269000E-02 
S    1    1.000000
   4.44553000E+01    2.60801000E-01 
S    1    1.000000
   1.30290000E+01    6.16462000E-01 
S    1    1.000000
   1.82773000E+00    2.21006000E-01 
SP   3    1.000000
   2.09642000E+01    1.14660000E-01   4.02487000E-02 
   4.80331000E+00    9.19999000E-01   2.37594000E-01 
   1.45933000E+00   -3.03068000E-03   8.15854000E-01 
SP   1    1.000000
   4.83456000E-01    1.00000000E+00   1.00000000E+00 
SP   1    1.000000
   1.45585000E-01    1.00000000E+00   1.00000000E+00 
SP   1    1.000000
   4.38000000E-02    1.00000000E+00   1.00000000E+00 
SP   1    1.000000
   1.31927711E-02    1.00000000E+00   1.00000000E+00 
D    1    1.000000
   6.26000000E-01    1.00000000E+00 

6    0
S    1    1.000000
   8.58850000E+03    1.89515000E-03 
S    1    1.000000
   1.29723000E+03    1.43859000E-02 
S    1    1.000000
   2.99296000E+02    7.07320000E-02 
S    1    1.000000
   8.73771000E+01    2.40001000E-01 
S    1    1.000000
   2.56789000E+01    5.94797000E-01 
S    1    1.000000
   3.74004000E+00    2.80802000E-01 
SP   3    1.000000
   4.21175000E+01    1.13889000E-01   3.65114000E-02 
   9.62837000E+00    9.20811000E-01   2.37153000E-01 
   2.85332000E+00   -3.27447000E-03   8.19702000E-01 
SP   1    1.000000
   9.05661000E-01    1.00000000E+00   1.00000000E+00 
SP   1    1.000000
   2.55611000E-01    1.00000000E+00   1.00000000E+00 
SP   1    1.000000
   8.45000000E-02    1.00000000E+00   1.00000000E+00 
SP   1    1.000000
   2.54518072E-02    1.00000000E+00   1.00000000E+00 
D    1    1.000000
   1.29200000E+00    1.00000000E+00 

7    0
S    1    1.000000
   4.56324000E+03    1.96665000E-03 
S    1    1.000000
   6.82024000E+02    1.52306000E-02 
S    1    1.000000
   1.54973000E+02    7.61269000E-02 
S    1    1.000000
   4.44553000E+01    2.60801000E-01 
S    1    1.000000
   1.30290000E+01    6.16462000E-01 
S    1    1.000000
   1.82773000E+00    2.21006000E-01 
SP   3    1.000000
   2.09642000E+01    1.14660000E-01   4.02487000E-02 
   4.80331000E+00    9.19999000E-01   2.37594000E-01 
   1.45933000E+00   -3.03068000E-03   8.15854000E-01 
SP   1    1.000000
   4.83456000E-01    1.00000000E+00   1.00000000E+00 
SP   1    1.000000
   1.45585000E-01    1.00000000E+00   1.00000000E+00 
SP   1    1.000000
   4.38000000E-02    1.00000000E+00   1.00000000E+00 
SP   1    1.000000
   1.31927711E-02    1.00000000E+00   1.00000000E+00 
D    1    1.000000
   6.26000000E-01    1.00000000E+00 

8    0
S    1    1.000000
   8.58850000E+03    1.89515000E-03 
S    1    1.000000
   1.29723000E+03    1.43859000E-02 
S    1    1.000000
   2.99296000E+02    7.07320000E-02 
S    1    1.000000
   8.73771000E+01    2.40001000E-01 
S    1    1.000000
   2.56789000E+01    5.94797000E-01 
S    1    1.000000
   3.74004000E+00    2.80802000E-01 
SP   3    1.000000
   4.21175000E+01    1.13889000E-01   3.65114000E-02 
   9.62837000E+00    9.20811000E-01   2.37153000E-01 
   2.85332000E+00   -3.27447000E-03   8.19702000E-01 
SP   1    1.000000
   9.05661000E-01    1.00000000E+00   1.00000000E+00 
SP   1    1.000000
   2.55611000E-01    1.00000000E+00   1.00000000E+00 
SP   1    1.000000
   8.45000000E-02    1.00000000E+00   1.00000000E+00 
SP   1    1.000000
   2.54518072E-02    1.00000000E+00   1.00000000E+00 
D    1    1.000000
   1.29200000E+00    1.00000000E+00 

9    0
S    1    1.000000
   6.29348000E+03    1.96979000E-03 
S    1    1.000000
   9.49044000E+02    1.49613000E-02 
S    1    1.000000
   2.18776000E+02    7.35006000E-02 
S    1    1.000000
   6.36916000E+01    2.48937000E-01 
S    1    1.000000
   1.88282000E+01    6.02460000E-01 
S    1    1.000000
   2.72023000E+00    2.56202000E-01 
SP   3    1.000000
   3.06331000E+01    1.11906000E-01   3.83119000E-02 
   7.02614000E+00    9.21666000E-01   2.37403000E-01 
   2.11205000E+00   -2.56919000E-03   8.17592000E-01 
SP   1    1.000000
   6.84009000E-01    1.00000000E+00   1.00000000E+00 
SP   1    1.000000
   2.00878000E-01    1.00000000E+00   1.00000000E+00 
SP   1    1.000000
   6.39000000E-02    1.00000000E+00   1.00000000E+00 
SP   1    1.000000
   1.92469880E-02    1.00000000E+00   1.00000000E+00 
D    1    1.000000
   9.13000000E-01    1.00000000E+00 

10    0
S    1    1.000000
   6.29348000E+03    1.96979000E-03 
S    1    1.000000
   9.49044000E+02    1.49613000E-02 
S    1    1.000000
   2.18776000E+02    7.35006000E-02 
S    1    1.000000
   6.36916000E+01    2.48937000E-01 
S    1    1.000000
   1.88282000E+01    6.02460000E-01 
S    1    1.000000
   2.72023000E+00    2.56202000E-01 
SP   3    1.000000
   3.06331000E+01    1.11906000E-01   3.83119000E-02 
   7.02614000E+00    9.21666000E-01   2.37403000E-01 
   2.11205000E+00   -2.56919000E-03   8.17592000E-01 
SP   1    1.000000
   6.84009000E-01    1.00000000E+00   1.00000000E+00 
SP   1    1.000000
   2.00878000E-01    1.00000000E+00   1.00000000E+00 
SP   1    1.000000
   6.39000000E-02    1.00000000E+00   1.00000000E+00 
SP   1    1.000000
   1.92469880E-02    1.00000000E+00   1.00000000E+00 
D    1    1.000000
   9.13000000E-01    1.00000000E+00 

11    0
S    1    1.000000
   4.56324000E+03    1.96665000E-03 
S    1    1.000000
   6.82024000E+02    1.52306000E-02 
S    1    1.000000
   1.54973000E+02    7.61269000E-02 
S    1    1.000000
   4.44553000E+01    2.60801000E-01 
S    1    1.000000
   1.30290000E+01    6.16462000E-01 
S    1    1.000000
   1.82773000E+00    2.21006000E-01 
SP   3    1.000000
   2.09642000E+01    1.14660000E-01   4.02487000E-02 
   4.80331000E+00    9.19999000E-01   2.37594000E-01 
   1.45933000E+00   -3.03068000E-03   8.15854000E-01 
SP   1    1.000000
   4.83456000E-01    1.00000000E+00   1.00000000E+00 
SP   1    1.000000
   1.45585000E-01    1.00000000E+00   1.00000000E+00 
SP   1    1.000000
   4.38000000E-02    1.00000000E+00   1.00000000E+00 
SP   1    1.000000
   1.31927711E-02    1.00000000E+00   1.00000000E+00 
D    1    1.000000
   6.26000000E-01    1.00000000E+00 

12    0
S    3    1.000000
   3.38650000E+01    2.54938000E-02 
   5.09479000E+00    1.90373000E-01 
   1.15879000E+00    8.52161000E-01 
S    1    1.000000
   3.25840000E-01    1.00000000E+00 
S    1    1.000000
   1.02741000E-01    1.00000000E+00 
S    1    1.000000
   3.60000000E-02    1.00000000E+00 
P    1    1.000000
   7.50000000E-01    1.00000000E+00 

[MO]
Sym=X
Ene=7.4e-05
Spin=Alpha
Occup=1
1    -0.000268363918
2    -0.00207758511
3    -0.0103638612
4    -0.0355829035
5    -0.0840562675
6    -0.03070939
7    -0.112592681
8    0.000325696885
9    -4.86018496e-05
10    1.14622343e-15
11    -4.78028096e-05
12    0.00013268496
13    0.000253413593
14    -2.99031728e-15
15    -0.000931314115
16    -0.000155845886
17    -0.000436276426
18    5.57624069e-15
19    -0.0030800788
20    6.82946024e-05
21    -0.00139383882
22    -1.40580383e-14
23    -6.83989538e-05
24    6.77596343e-05
25    -0.000303555116
26    -6.59892529e-14
27    0.000128280802
28    4.49399584e-16
29    4.53343462e-05
30    -4.87155173e-18
31    9.77894207e-05
32    4.28077928e-06
33    -1.46557659e-05
34    0.00021522431
35    0.000448958043
36    -3.32454397e-06
37    -1.05573671e-05
38    2.88045958e-16
39    -7.74676688e-05
40    -4.51644981e-06
41    -0.000301956997
42    -0.000433966781
43    3.40963054e-05
44    -2.33455482e-05
45    2.70668399e-16
46    3.101088e-05
47    7.52383374e-05
48    6.61433636e-05
49    -0.000117203783
50    -8.13314299e-06
51    -3.60571272e-05
52    -4.94726024e-16
53    -3.18476642e-05
54    -0.000246518486
55    -0.00122999377
56    -0.00422199076
57    -0.00998257206
58    -0.00366307377
59    -0.0133405244
60    -3.37037921e-05
61    8.72804214e-06
62    -5.63317224e-16
63    2.54369081e-05
64    6.42996572e-05
65    2.07080742e-07
66    2.79129077e-16
67    -0.000445668266
68    -0.000502021443
69    0.000233787777
70    -1.57716624e-15
71    0.000365241764
72    -0.000117331725
73    -0.000410539644
74    3.56837294e-16
75    -0.000446772772
76    -0.000230475499
77    -2.83216013e-05
78    7.89399919e-15
79    1.86203168e-05
80    -2.59489344e-17
81    1.2620292e-05
82    1.59543137e-16
83    4.23302948e-05
84    1.49963965e-09
85    1.73745778e-08
86    4.72080623e-08
87    3.16547739e-07
88    -8.55051248e-07
89    -4.65175227e-06
90    6.61562398e-06
91    -7.34731719e-06
92    4.32353083e-06
93    -3.84636481e-16
94    7.35718598e-06
95    1.4743886e-06
96    1.1475279e-05
97    3.4562799e-16
98    -0.000116025596
99    -4.77842136e-05
100    4.11785904e-05
101    -2.59261449e-15
102    -0.000673532736
103    -0.000231570287
104    6.72214617e-05
105    2.61462852e-15
106    0.000111972663
107    0.000138633457
108    0.00021274157
109    -1.95341784e-14
110    1.13140521e-05
111    6.25403405e-16
112    4.91432039e-06
113    5.68591396e-17
114    2.46953487e-06
115    0.000905781846
116    0.00701210123
117    0.0349803454
118    0.120093709
119    0.283720275
120    0.103170161
121    0.379982126
122    -0.000609811025
123    0.000353930228
124    -6.17375109e-16
125    0.00159425092
126    0.000647790807
127    -0.000501831571
128    1.67815384e-15
129    0.000874702388
130    7.01908157e-05
131    0.000843105596
132    -3.08578115e-15
133    -0.00295828322
134    0.000487152901
135    0.00249624348
136    -1.40577509e-14
137    -0.000400221704
138    -0.000321564392
139    5.87585835e-05
140    -1.73216175e-14
141    0.000295962142
142    3.71619193e-17
143    -0.000244427584
144    6.16834049e-18
145    -0.00021371438
146    3.05669766e-08
147    3.36395217e-07
148    7.50130053e-07
149    5.51191333e-06
150    -1.18074828e-05
151    -0.000128044251
152    8.36688052e-06
153    -0.000164283383
154    -0.000100724878
155    3.00797353e-16
156    0.000565388302
157    -0.000477123657
158    -0.00032110171
159    -1.00359111e-15
160    -0.000341776455
161    0.000251103842
162    9.3415312e-05
163    -1.39787387e-15
164    -0.000692606802
165    -5.8778281e-07
166    -0.000128725747
167    6.24354995e-15
168    -0.00276219557
169    0.000669497723
170    0.000115312131
171    -8.18041841e-15
172    0.000223361978
173    1.79346346e-16
174    -9.41739393e-05
175    1.03966105e-16
176    8.15295425e-05
177    -1.02981639e-07
178    -6.23731827e-07
179    -4.29177094e-06
180    -1.01875708e-05
181    -6.68881632e-05
182    -0.000206254283
183    2.37379198e-05
184    2.61830833e-05
185    -2.48982611e-05
186    -9.46616538e-17
187    0.000460077748
188    0.000632649222
189    -0.000273063666
190    1.01021956e-15
191    0.00018807728
192    -0.000228442975
193    -0.000248489323
194    -1.26206593e-15
195    -0.000688715875
196    -0.00101725329
197    -4.91900068e-05
198    5.73096438e-15
199    0.00055366729
200    0.00091377439
201    2.41726649e-06
202    4.01952022e-15
203    -0.000245550452
204    1.21270725e-16
205    -9.99930027e-05
206    3.3179968e-16
207    0.00017765919
208    2.06077011e-07
209    1.58039791e-06
210    7.69711809e-06
211    2.6468478e-05
212    6.18992248e-05
213    3.61040083e-05
214    0.000106057057
215    -3.62743244e-05
216    1.06241458e-05
217    -4.16449477e-16
218    -8.99575502e-05
219    -0.00010338183
220    7.20658946e-05
221    -2.5956915e-17
222    0.000172696669
223    6.21742536e-05
224    0.00011339077
225    -1.59283944e-15
226    0.000939128477
227    0.000698691783
228    0.000120153337
229    -3.48092928e-15
230    0.00103448779
231    8.69327465e-05
232    0.000383335123
233    3.76229567e-14
234    5.85443939e-05
235    1.93954906e-16
236    2.50736829e-05
237    -6.58759242e-17
238    -1.69559086e-05
239    0.000580681053
240    0.00449548371
241    0.0224247555
242    0.0769950246
243    0.181873808
244    0.0664685666
245    0.243461276
246    -6.02215948e-05
247    0.000211888615
248    5.90729954e-16
249    0.00115008434
250    9.87919347e-05
251    0.000347482301
252    -6.79029749e-16
253    0.000998655283
254    -0.000514064795
255    0.000155865236
256    7.54453748e-16
257    0.00721746355
258    -0.000765641173
259    0.00186717478
260    7.36290719e-15
261    0.000703105946
262    0.000169566386
263    0.000442627555
264    5.27908142e-14
265    2.3609491e-05
266    1.80411157e-16
267    -8.02054522e-05
268    4.28915669e-17
269    -0.000223895391
270    0.000211694353
271    0.000302857626
272    8.8424742e-05
273    0.000536290886
274    -0.000147970757
275    0.000142369082
276    1.52671833e-17
[5D]