[Molden Format]
[Atoms] (Angs)
  C      1    6     -0.00714236     -1.70213747     -0.00000000
  H      2    1     -2.06882847     -1.44022412      0.00000000
  H      3    1     -0.12337987     -2.77567521      0.00000000
  H      4    1      0.04651892      1.98813947     -0.00000000
  C      5    6     -1.21953563      0.40211669      0.00000000
  O      6    8     -2.25921553      1.03043814      0.00000000
  C      7    6      1.28797806      0.34644937     -0.00000000
  O      8    8      2.31273661      1.00537216     -0.00000000
  N      9    7      0.03446295      0.97739857     -0.00000000
  N     10    7     -1.17287765     -0.98229824      0.00000000
  C     11    6      1.20107039     -1.10433419     -0.00000000
  H     12    1      2.11220096     -1.67699125     -0.00000000
[GTO]
1    0
S    1    1.000000
   4.56324000E+03    1.96665000E-03 
S    1    1.000000
   6.82024000E+02    1.52306000E-02 
S    1    1.000000
   1.54973000E+02    7.61269000E-02 
S    1    1.000000
   4.44553000E+01    2.60801000E-01 
S    1    1.000000
   1.30290000E+01    6.16462000E-01 
S    1    1.000000
   1.82773000E+00    2.21006000E-01 
SP   3    1.000000
   2.09642000E+01    1.14660000E-01   4.02487000E-02 
   4.80331000E+00    9.19999000E-01   2.37594000E-01 
   1.45933000E+00   -3.03068000E-03   8.15854000E-01 
SP   1    1.000000
   4.83456000E-01    1.00000000E+00   1.00000000E+00 
SP   1    1.000000
   1.45585000E-01    1.00000000E+00   1.00000000E+00 
SP   1    1.000000
   4.38000000E-02    1.00000000E+00   1.00000000E+00 
SP   1    1.000000
   1.31927711E-02    1.00000000E+00   1.00000000E+00 
D    1    1.000000
   6.26000000E-01    1.00000000E+00 

2    0
S    3    1.000000
   3.38650000E+01    2.54938000E-02 
   5.09479000E+00    1.90373000E-01 
   1.15879000E+00    8.52161000E-01 
S    1    1.000000
   3.25840000E-01    1.00000000E+00 
S    1    1.000000
   1.02741000E-01    1.00000000E+00 
S    1    1.000000
   3.60000000E-02    1.00000000E+00 
P    1    1.000000
   7.50000000E-01    1.00000000E+00 

3    0
S    3    1.000000
   3.38650000E+01    2.54938000E-02 
   5.09479000E+00    1.90373000E-01 
   1.15879000E+00    8.52161000E-01 
S    1    1.000000
   3.25840000E-01    1.00000000E+00 
S    1    1.000000
   1.02741000E-01    1.00000000E+00 
S    1    1.000000
   3.60000000E-02    1.00000000E+00 
P    1    1.000000
   7.50000000E-01    1.00000000E+00 

4    0
S    3    1.000000
   3.38650000E+01    2.54938000E-02 
   5.09479000E+00    1.90373000E-01 
   1.15879000E+00    8.52161000E-01 
S    1    1.000000
   3.25840000E-01    1.00000000E+00 
S    1    1.000000
   1.02741000E-01    1.00000000E+00 
S    1    1.000000
   3.60000000E-02    1.00000000E+00 
P    1    1.000000
   7.50000000E-01    1.00000000E+00 

5    0
S    1    1.000000
   4.56324000E+03    1.96665000E-03 
S    1    1.000000
   6.82024000E+02    1.52306000E-02 
S    1    1.000000
   1.54973000E+02    7.61269000E-02 
S    1    1.000000
   4.44553000E+01    2.60801000E-01 
S    1    1.000000
   1.30290000E+01    6.16462000E-01 
S    1    1.000000
   1.82773000E+00    2.21006000E-01 
SP   3    1.000000
   2.09642000E+01    1.14660000E-01   4.02487000E-02 
   4.80331000E+00    9.19999000E-01   2.37594000E-01 
   1.45933000E+00   -3.03068000E-03   8.15854000E-01 
SP   1    1.000000
   4.83456000E-01    1.00000000E+00   1.00000000E+00 
SP   1    1.000000
   1.45585000E-01    1.00000000E+00   1.00000000E+00 
SP   1    1.000000
   4.38000000E-02    1.00000000E+00   1.00000000E+00 
SP   1    1.000000
   1.31927711E-02    1.00000000E+00   1.00000000E+00 
D    1    1.000000
   6.26000000E-01    1.00000000E+00 

6    0
S    1    1.000000
   8.58850000E+03    1.89515000E-03 
S    1    1.000000
   1.29723000E+03    1.43859000E-02 
S    1    1.000000
   2.99296000E+02    7.07320000E-02 
S    1    1.000000
   8.73771000E+01    2.40001000E-01 
S    1    1.000000
   2.56789000E+01    5.94797000E-01 
S    1    1.000000
   3.74004000E+00    2.80802000E-01 
SP   3    1.000000
   4.21175000E+01    1.13889000E-01   3.65114000E-02 
   9.62837000E+00    9.20811000E-01   2.37153000E-01 
   2.85332000E+00   -3.27447000E-03   8.19702000E-01 
SP   1    1.000000
   9.05661000E-01    1.00000000E+00   1.00000000E+00 
SP   1    1.000000
   2.55611000E-01    1.00000000E+00   1.00000000E+00 
SP   1    1.000000
   8.45000000E-02    1.00000000E+00   1.00000000E+00 
SP   1    1.000000
   2.54518072E-02    1.00000000E+00   1.00000000E+00 
D    1    1.000000
   1.29200000E+00    1.00000000E+00 

7    0
S    1    1.000000
   4.56324000E+03    1.96665000E-03 
S    1    1.000000
   6.82024000E+02    1.52306000E-02 
S    1    1.000000
   1.54973000E+02    7.61269000E-02 
S    1    1.000000
   4.44553000E+01    2.60801000E-01 
S    1    1.000000
   1.30290000E+01    6.16462000E-01 
S    1    1.000000
   1.82773000E+00    2.21006000E-01 
SP   3    1.000000
   2.09642000E+01    1.14660000E-01   4.02487000E-02 
   4.80331000E+00    9.19999000E-01   2.37594000E-01 
   1.45933000E+00   -3.03068000E-03   8.15854000E-01 
SP   1    1.000000
   4.83456000E-01    1.00000000E+00   1.00000000E+00 
SP   1    1.000000
   1.45585000E-01    1.00000000E+00   1.00000000E+00 
SP   1    1.000000
   4.38000000E-02    1.00000000E+00   1.00000000E+00 
SP   1    1.000000
   1.31927711E-02    1.00000000E+00   1.00000000E+00 
D    1    1.000000
   6.26000000E-01    1.00000000E+00 

8    0
S    1    1.000000
   8.58850000E+03    1.89515000E-03 
S    1    1.000000
   1.29723000E+03    1.43859000E-02 
S    1    1.000000
   2.99296000E+02    7.07320000E-02 
S    1    1.000000
   8.73771000E+01    2.40001000E-01 
S    1    1.000000
   2.56789000E+01    5.94797000E-01 
S    1    1.000000
   3.74004000E+00    2.80802000E-01 
SP   3    1.000000
   4.21175000E+01    1.13889000E-01   3.65114000E-02 
   9.62837000E+00    9.20811000E-01   2.37153000E-01 
   2.85332000E+00   -3.27447000E-03   8.19702000E-01 
SP   1    1.000000
   9.05661000E-01    1.00000000E+00   1.00000000E+00 
SP   1    1.000000
   2.55611000E-01    1.00000000E+00   1.00000000E+00 
SP   1    1.000000
   8.45000000E-02    1.00000000E+00   1.00000000E+00 
SP   1    1.000000
   2.54518072E-02    1.00000000E+00   1.00000000E+00 
D    1    1.000000
   1.29200000E+00    1.00000000E+00 

9    0
S    1    1.000000
   6.29348000E+03    1.96979000E-03 
S    1    1.000000
   9.49044000E+02    1.49613000E-02 
S    1    1.000000
   2.18776000E+02    7.35006000E-02 
S    1    1.000000
   6.36916000E+01    2.48937000E-01 
S    1    1.000000
   1.88282000E+01    6.02460000E-01 
S    1    1.000000
   2.72023000E+00    2.56202000E-01 
SP   3    1.000000
   3.06331000E+01    1.11906000E-01   3.83119000E-02 
   7.02614000E+00    9.21666000E-01   2.37403000E-01 
   2.11205000E+00   -2.56919000E-03   8.17592000E-01 
SP   1    1.000000
   6.84009000E-01    1.00000000E+00   1.00000000E+00 
SP   1    1.000000
   2.00878000E-01    1.00000000E+00   1.00000000E+00 
SP   1    1.000000
   6.39000000E-02    1.00000000E+00   1.00000000E+00 
SP   1    1.000000
   1.92469880E-02    1.00000000E+00   1.00000000E+00 
D    1    1.000000
   9.13000000E-01    1.00000000E+00 

10    0
S    1    1.000000
   6.29348000E+03    1.96979000E-03 
S    1    1.000000
   9.49044000E+02    1.49613000E-02 
S    1    1.000000
   2.18776000E+02    7.35006000E-02 
S    1    1.000000
   6.36916000E+01    2.48937000E-01 
S    1    1.000000
   1.88282000E+01    6.02460000E-01 
S    1    1.000000
   2.72023000E+00    2.56202000E-01 
SP   3    1.000000
   3.06331000E+01    1.11906000E-01   3.83119000E-02 
   7.02614000E+00    9.21666000E-01   2.37403000E-01 
   2.11205000E+00   -2.56919000E-03   8.17592000E-01 
SP   1    1.000000
   6.84009000E-01    1.00000000E+00   1.00000000E+00 
SP   1    1.000000
   2.00878000E-01    1.00000000E+00   1.00000000E+00 
SP   1    1.000000
   6.39000000E-02    1.00000000E+00   1.00000000E+00 
SP   1    1.000000
   1.92469880E-02    1.00000000E+00   1.00000000E+00 
D    1    1.000000
   9.13000000E-01    1.00000000E+00 

11    0
S    1    1.000000
   4.56324000E+03    1.96665000E-03 
S    1    1.000000
   6.82024000E+02    1.52306000E-02 
S    1    1.000000
   1.54973000E+02    7.61269000E-02 
S    1    1.000000
   4.44553000E+01    2.60801000E-01 
S    1    1.000000
   1.30290000E+01    6.16462000E-01 
S    1    1.000000
   1.82773000E+00    2.21006000E-01 
SP   3    1.000000
   2.09642000E+01    1.14660000E-01   4.02487000E-02 
   4.80331000E+00    9.19999000E-01   2.37594000E-01 
   1.45933000E+00   -3.03068000E-03   8.15854000E-01 
SP   1    1.000000
   4.83456000E-01    1.00000000E+00   1.00000000E+00 
SP   1    1.000000
   1.45585000E-01    1.00000000E+00   1.00000000E+00 
SP   1    1.000000
   4.38000000E-02    1.00000000E+00   1.00000000E+00 
SP   1    1.000000
   1.31927711E-02    1.00000000E+00   1.00000000E+00 
D    1    1.000000
   6.26000000E-01    1.00000000E+00 

12    0
S    3    1.000000
   3.38650000E+01    2.54938000E-02 
   5.09479000E+00    1.90373000E-01 
   1.15879000E+00    8.52161000E-01 
S    1    1.000000
   3.25840000E-01    1.00000000E+00 
S    1    1.000000
   1.02741000E-01    1.00000000E+00 
S    1    1.000000
   3.60000000E-02    1.00000000E+00 
P    1    1.000000
   7.50000000E-01    1.00000000E+00 

[MO]
Sym=X
Ene=0.832629
Spin=Alpha
Occup=1
1    -8.487565e-07
2    -6.53297419e-06
3    -3.28595124e-05
4    -0.000111779997
5    -0.000274497509
6    -0.000146739647
7    -0.00032906345
8    -1.68585833e-05
9    -1.51389323e-05
10    8.82920335e-16
11    0.000113162209
12    0.000114291509
13    0.000100507362
14    -1.97169046e-15
15    -7.64992345e-05
16    -9.18239697e-05
17    0.000108125595
18    4.79644911e-15
19    -0.00174526112
20    -2.09495482e-05
21    -0.000616633049
22    -2.90571599e-14
23    2.37145651e-05
24    9.60477715e-05
25    -0.000212019806
26    -5.27482779e-14
27    7.27091682e-05
28    6.6496823e-16
29    5.86016751e-07
30    5.19501819e-16
31    1.1718114e-05
32    1.04052431e-05
33    -3.90756434e-05
34    0.000213061979
35    0.000322625466
36    1.22067808e-06
37    -4.57328415e-06
38    -6.21735224e-16
39    -7.38253055e-07
40    8.8873087e-05
41    -3.66076332e-05
42    -1.8013388e-05
43    1.62603091e-05
44    1.88733899e-05
45    2.73144134e-16
46    3.4420212e-05
47    5.15369675e-05
48    0.00013157749
49    -0.000234603192
50    -1.22588466e-05
51    -4.14350164e-05
52    3.36948009e-16
53    1.00308288e-08
54    1.06700139e-07
55    3.25925251e-07
56    1.91271983e-06
57    -3.58566309e-06
58    -3.69796625e-05
59    2.57937638e-05
60    -1.7579541e-05
61    -1.60734131e-06
62    -1.26632665e-15
63    7.37478933e-05
64    5.18701129e-05
65    2.32861549e-06
66    2.80198239e-16
67    -3.92600625e-05
68    -0.000474274568
69    0.000226007278
70    -3.72908562e-15
71    0.000574817914
72    -0.00012919756
73    -0.000260923006
74    -2.39552125e-14
75    -0.000478518373
76    -0.00018565432
77    -5.77814574e-05
78    -9.15164785e-15
79    5.41207682e-06
80    4.23088196e-16
81    2.00588483e-06
82    7.81465318e-16
83    4.34215437e-05
84    -1.60683577e-09
85    7.48434196e-10
86    -9.0537736e-08
87    4.4239601e-08
88    -3.27421343e-06
89    -1.27668392e-05
90    6.76661981e-06
91    -1.07090417e-06
92    8.90399634e-07
93    -5.39486298e-16
94    3.66199653e-05
95    1.97923585e-05
96    -1.52390288e-06
97    -7.87321719e-16
98    -0.000176140194
99    -8.22802826e-05
100    6.42014313e-05
101    -3.49406735e-15
102    -0.000762525694
103    -0.000235173796
104    6.10962705e-05
105    3.33907697e-15
106    -0.00021253973
107    4.9791035e-05
108    0.00020830943
109    -1.32136445e-14
110    5.00110032e-06
111    6.88952584e-16
112    1.36803359e-06
113    -7.29597804e-17
114    5.13004408e-06
115    0.00110953229
116    0.00858943207
117    0.0428490439
118    0.147108473
119    0.347546044
120    0.126444995
121    0.465471366
122    -0.000739963206
123    0.000492110858
124    2.11310039e-15
125    0.00162470198
126    0.000805348978
127    -0.000240354722
128    4.77761304e-15
129    0.00152935233
130    -0.000291062092
131    0.000410674382
132    4.05083705e-15
133    -0.00234344231
134    0.000150422524
135    0.00241175401
136    -3.23772351e-14
137    -0.000258102774
138    -0.000297523689
139    4.52404935e-05
140    -1.61096131e-15
141    0.000334729387
142    2.12976691e-16
143    -0.000254268736
144    1.68113279e-16
145    -4.82618603e-05
146    -3.51791136e-07
147    -2.57234247e-06
148    -1.35484397e-05
149    -4.31090818e-05
150    -0.000131553282
151    -0.000191218163
152    -0.000181548005
153    -0.000205236137
154    -0.000137331331
155    1.87700964e-15
156    0.000642136801
157    -0.000558466353
158    -0.000371715061
159    1.69678007e-15
160    -0.000264369823
161    0.000228607423
162    0.000115225557
163    2.56156771e-15
164    -0.000362884994
165    -7.11641373e-05
166    -0.000188858207
167    1.20820529e-14
168    -0.00220651603
169    0.000591135205
170    6.44319792e-05
171    -7.44282896e-15
172    0.000256507406
173    -2.38679609e-16
174    -0.000114603258
175    -4.02436236e-16
176    0.000114157453
177    -2.43161103e-07
178    -1.66737479e-06
179    -9.60117198e-06
180    -2.75612518e-05
181    -0.000115196447
182    -0.000257354328
183    -3.12771817e-05
184    4.49615572e-05
185    -3.87738726e-05
186    -8.69595851e-17
187    0.000570200606
188    0.000694195806
189    -0.000328892767
190    4.6115517e-15
191    5.04781029e-05
192    -0.000160964483
193    -0.000156197745
194    -5.29389798e-15
195    -0.00125460303
196    -0.00101440834
197    -1.56840443e-05
198    2.67256851e-14
199    0.00043129848
200    0.000649011278
201    9.24168633e-05
202    1.34236934e-14
203    -0.000268355597
204    -8.84127289e-17
205    -0.000123733989
206    7.91538135e-16
207    0.000215984062
208    1.17661118e-09
209    4.72381603e-08
210    -4.3463929e-08
211    9.12946795e-07
212    -7.43157094e-06
213    -3.56851758e-05
214    2.32357903e-05
215    -7.00940362e-06
216    -1.64351191e-06
217    -1.69057167e-15
218    6.91885864e-05
219    2.69197156e-05
220    9.57448706e-06
221    -2.88645318e-16
222    -1.20277967e-05
223    -2.68003578e-05
224    3.52726349e-05
225    -5.79964728e-15
226    0.000112598495
227    0.000455149027
228    7.65582814e-05
229    1.00129593e-14
230    0.000733365308
231    -2.23814951e-05
232    0.000350976361
233    4.46456752e-14
234    -9.00124574e-06
235    2.36121815e-16
236    -3.75686738e-06
237    1.3136314e-16
238    -3.79212199e-06
239    -2.75592612e-06
240    -2.13773454e-05
241    -0.000106424756
242    -0.000366809847
243    -0.000860059241
244    -0.000352116149
245    -0.00120148722
246    -6.50146545e-07
247    8.84782337e-05
248    1.30176955e-15
249    0.000286600571
250    7.4537824e-05
251    0.000489972002
252    2.43766121e-15
253    -0.000206204521
254    5.30581581e-05
255    -0.000275114365
256    1.06206782e-15
257    0.00600262576
258    -0.000259676047
259    0.00142667951
260    3.05499538e-14
261    0.000622004361
262    9.82586687e-05
263    0.000364629123
264    3.19090443e-14
265    3.48391071e-05
266    7.71527808e-16
267    -2.17427084e-05
268    1.64913117e-17
269    -0.000283954085
270    2.33658511e-05
271    8.90605848e-05
272    -0.000180624456
273    0.000265338731
274    -3.52898741e-05
275    7.14440055e-05
276    5.10993752e-16
[5D]