[Molden Format]
[Atoms] (Angs)
  C      1    6     -0.00714236     -1.70213747     -0.00000000
  H      2    1     -2.06882847     -1.44022412      0.00000000
  H      3    1     -0.12337987     -2.77567521      0.00000000
  H      4    1      0.04651892      1.98813947     -0.00000000
  C      5    6     -1.21953563      0.40211669      0.00000000
  O      6    8     -2.25921553      1.03043814      0.00000000
  C      7    6      1.28797806      0.34644937     -0.00000000
  O      8    8      2.31273661      1.00537216     -0.00000000
  N      9    7      0.03446295      0.97739857     -0.00000000
  N     10    7     -1.17287765     -0.98229824      0.00000000
  C     11    6      1.20107039     -1.10433419     -0.00000000
  H     12    1      2.11220096     -1.67699125     -0.00000000
[GTO]
1    0
S    1    1.000000
   4.56324000E+03    1.96665000E-03 
S    1    1.000000
   6.82024000E+02    1.52306000E-02 
S    1    1.000000
   1.54973000E+02    7.61269000E-02 
S    1    1.000000
   4.44553000E+01    2.60801000E-01 
S    1    1.000000
   1.30290000E+01    6.16462000E-01 
S    1    1.000000
   1.82773000E+00    2.21006000E-01 
SP   3    1.000000
   2.09642000E+01    1.14660000E-01   4.02487000E-02 
   4.80331000E+00    9.19999000E-01   2.37594000E-01 
   1.45933000E+00   -3.03068000E-03   8.15854000E-01 
SP   1    1.000000
   4.83456000E-01    1.00000000E+00   1.00000000E+00 
SP   1    1.000000
   1.45585000E-01    1.00000000E+00   1.00000000E+00 
SP   1    1.000000
   4.38000000E-02    1.00000000E+00   1.00000000E+00 
SP   1    1.000000
   1.31927711E-02    1.00000000E+00   1.00000000E+00 
D    1    1.000000
   6.26000000E-01    1.00000000E+00 

2    0
S    3    1.000000
   3.38650000E+01    2.54938000E-02 
   5.09479000E+00    1.90373000E-01 
   1.15879000E+00    8.52161000E-01 
S    1    1.000000
   3.25840000E-01    1.00000000E+00 
S    1    1.000000
   1.02741000E-01    1.00000000E+00 
S    1    1.000000
   3.60000000E-02    1.00000000E+00 
P    1    1.000000
   7.50000000E-01    1.00000000E+00 

3    0
S    3    1.000000
   3.38650000E+01    2.54938000E-02 
   5.09479000E+00    1.90373000E-01 
   1.15879000E+00    8.52161000E-01 
S    1    1.000000
   3.25840000E-01    1.00000000E+00 
S    1    1.000000
   1.02741000E-01    1.00000000E+00 
S    1    1.000000
   3.60000000E-02    1.00000000E+00 
P    1    1.000000
   7.50000000E-01    1.00000000E+00 

4    0
S    3    1.000000
   3.38650000E+01    2.54938000E-02 
   5.09479000E+00    1.90373000E-01 
   1.15879000E+00    8.52161000E-01 
S    1    1.000000
   3.25840000E-01    1.00000000E+00 
S    1    1.000000
   1.02741000E-01    1.00000000E+00 
S    1    1.000000
   3.60000000E-02    1.00000000E+00 
P    1    1.000000
   7.50000000E-01    1.00000000E+00 

5    0
S    1    1.000000
   4.56324000E+03    1.96665000E-03 
S    1    1.000000
   6.82024000E+02    1.52306000E-02 
S    1    1.000000
   1.54973000E+02    7.61269000E-02 
S    1    1.000000
   4.44553000E+01    2.60801000E-01 
S    1    1.000000
   1.30290000E+01    6.16462000E-01 
S    1    1.000000
   1.82773000E+00    2.21006000E-01 
SP   3    1.000000
   2.09642000E+01    1.14660000E-01   4.02487000E-02 
   4.80331000E+00    9.19999000E-01   2.37594000E-01 
   1.45933000E+00   -3.03068000E-03   8.15854000E-01 
SP   1    1.000000
   4.83456000E-01    1.00000000E+00   1.00000000E+00 
SP   1    1.000000
   1.45585000E-01    1.00000000E+00   1.00000000E+00 
SP   1    1.000000
   4.38000000E-02    1.00000000E+00   1.00000000E+00 
SP   1    1.000000
   1.31927711E-02    1.00000000E+00   1.00000000E+00 
D    1    1.000000
   6.26000000E-01    1.00000000E+00 

6    0
S    1    1.000000
   8.58850000E+03    1.89515000E-03 
S    1    1.000000
   1.29723000E+03    1.43859000E-02 
S    1    1.000000
   2.99296000E+02    7.07320000E-02 
S    1    1.000000
   8.73771000E+01    2.40001000E-01 
S    1    1.000000
   2.56789000E+01    5.94797000E-01 
S    1    1.000000
   3.74004000E+00    2.80802000E-01 
SP   3    1.000000
   4.21175000E+01    1.13889000E-01   3.65114000E-02 
   9.62837000E+00    9.20811000E-01   2.37153000E-01 
   2.85332000E+00   -3.27447000E-03   8.19702000E-01 
SP   1    1.000000
   9.05661000E-01    1.00000000E+00   1.00000000E+00 
SP   1    1.000000
   2.55611000E-01    1.00000000E+00   1.00000000E+00 
SP   1    1.000000
   8.45000000E-02    1.00000000E+00   1.00000000E+00 
SP   1    1.000000
   2.54518072E-02    1.00000000E+00   1.00000000E+00 
D    1    1.000000
   1.29200000E+00    1.00000000E+00 

7    0
S    1    1.000000
   4.56324000E+03    1.96665000E-03 
S    1    1.000000
   6.82024000E+02    1.52306000E-02 
S    1    1.000000
   1.54973000E+02    7.61269000E-02 
S    1    1.000000
   4.44553000E+01    2.60801000E-01 
S    1    1.000000
   1.30290000E+01    6.16462000E-01 
S    1    1.000000
   1.82773000E+00    2.21006000E-01 
SP   3    1.000000
   2.09642000E+01    1.14660000E-01   4.02487000E-02 
   4.80331000E+00    9.19999000E-01   2.37594000E-01 
   1.45933000E+00   -3.03068000E-03   8.15854000E-01 
SP   1    1.000000
   4.83456000E-01    1.00000000E+00   1.00000000E+00 
SP   1    1.000000
   1.45585000E-01    1.00000000E+00   1.00000000E+00 
SP   1    1.000000
   4.38000000E-02    1.00000000E+00   1.00000000E+00 
SP   1    1.000000
   1.31927711E-02    1.00000000E+00   1.00000000E+00 
D    1    1.000000
   6.26000000E-01    1.00000000E+00 

8    0
S    1    1.000000
   8.58850000E+03    1.89515000E-03 
S    1    1.000000
   1.29723000E+03    1.43859000E-02 
S    1    1.000000
   2.99296000E+02    7.07320000E-02 
S    1    1.000000
   8.73771000E+01    2.40001000E-01 
S    1    1.000000
   2.56789000E+01    5.94797000E-01 
S    1    1.000000
   3.74004000E+00    2.80802000E-01 
SP   3    1.000000
   4.21175000E+01    1.13889000E-01   3.65114000E-02 
   9.62837000E+00    9.20811000E-01   2.37153000E-01 
   2.85332000E+00   -3.27447000E-03   8.19702000E-01 
SP   1    1.000000
   9.05661000E-01    1.00000000E+00   1.00000000E+00 
SP   1    1.000000
   2.55611000E-01    1.00000000E+00   1.00000000E+00 
SP   1    1.000000
   8.45000000E-02    1.00000000E+00   1.00000000E+00 
SP   1    1.000000
   2.54518072E-02    1.00000000E+00   1.00000000E+00 
D    1    1.000000
   1.29200000E+00    1.00000000E+00 

9    0
S    1    1.000000
   6.29348000E+03    1.96979000E-03 
S    1    1.000000
   9.49044000E+02    1.49613000E-02 
S    1    1.000000
   2.18776000E+02    7.35006000E-02 
S    1    1.000000
   6.36916000E+01    2.48937000E-01 
S    1    1.000000
   1.88282000E+01    6.02460000E-01 
S    1    1.000000
   2.72023000E+00    2.56202000E-01 
SP   3    1.000000
   3.06331000E+01    1.11906000E-01   3.83119000E-02 
   7.02614000E+00    9.21666000E-01   2.37403000E-01 
   2.11205000E+00   -2.56919000E-03   8.17592000E-01 
SP   1    1.000000
   6.84009000E-01    1.00000000E+00   1.00000000E+00 
SP   1    1.000000
   2.00878000E-01    1.00000000E+00   1.00000000E+00 
SP   1    1.000000
   6.39000000E-02    1.00000000E+00   1.00000000E+00 
SP   1    1.000000
   1.92469880E-02    1.00000000E+00   1.00000000E+00 
D    1    1.000000
   9.13000000E-01    1.00000000E+00 

10    0
S    1    1.000000
   6.29348000E+03    1.96979000E-03 
S    1    1.000000
   9.49044000E+02    1.49613000E-02 
S    1    1.000000
   2.18776000E+02    7.35006000E-02 
S    1    1.000000
   6.36916000E+01    2.48937000E-01 
S    1    1.000000
   1.88282000E+01    6.02460000E-01 
S    1    1.000000
   2.72023000E+00    2.56202000E-01 
SP   3    1.000000
   3.06331000E+01    1.11906000E-01   3.83119000E-02 
   7.02614000E+00    9.21666000E-01   2.37403000E-01 
   2.11205000E+00   -2.56919000E-03   8.17592000E-01 
SP   1    1.000000
   6.84009000E-01    1.00000000E+00   1.00000000E+00 
SP   1    1.000000
   2.00878000E-01    1.00000000E+00   1.00000000E+00 
SP   1    1.000000
   6.39000000E-02    1.00000000E+00   1.00000000E+00 
SP   1    1.000000
   1.92469880E-02    1.00000000E+00   1.00000000E+00 
D    1    1.000000
   9.13000000E-01    1.00000000E+00 

11    0
S    1    1.000000
   4.56324000E+03    1.96665000E-03 
S    1    1.000000
   6.82024000E+02    1.52306000E-02 
S    1    1.000000
   1.54973000E+02    7.61269000E-02 
S    1    1.000000
   4.44553000E+01    2.60801000E-01 
S    1    1.000000
   1.30290000E+01    6.16462000E-01 
S    1    1.000000
   1.82773000E+00    2.21006000E-01 
SP   3    1.000000
   2.09642000E+01    1.14660000E-01   4.02487000E-02 
   4.80331000E+00    9.19999000E-01   2.37594000E-01 
   1.45933000E+00   -3.03068000E-03   8.15854000E-01 
SP   1    1.000000
   4.83456000E-01    1.00000000E+00   1.00000000E+00 
SP   1    1.000000
   1.45585000E-01    1.00000000E+00   1.00000000E+00 
SP   1    1.000000
   4.38000000E-02    1.00000000E+00   1.00000000E+00 
SP   1    1.000000
   1.31927711E-02    1.00000000E+00   1.00000000E+00 
D    1    1.000000
   6.26000000E-01    1.00000000E+00 

12    0
S    3    1.000000
   3.38650000E+01    2.54938000E-02 
   5.09479000E+00    1.90373000E-01 
   1.15879000E+00    8.52161000E-01 
S    1    1.000000
   3.25840000E-01    1.00000000E+00 
S    1    1.000000
   1.02741000E-01    1.00000000E+00 
S    1    1.000000
   3.60000000E-02    1.00000000E+00 
P    1    1.000000
   7.50000000E-01    1.00000000E+00 

[MO]
Sym=X
Ene=0.114308
Spin=Alpha
Occup=1
1    -0.00104801588
2    -0.00811332512
3    -0.0404727953
4    -0.138955264
5    -0.328260269
6    -0.11968614
7    -0.439542761
8    0.00100772227
9    -0.000322982178
10    6.85385273e-16
11    -0.00174941087
12    -0.00119244204
13    -3.95375508e-05
14    -1.7301907e-15
15    -0.00106285015
16    0.000383174574
17    -0.000605514956
18    8.36049044e-15
19    1.97785378e-05
20    0.000710904717
21    -7.02764952e-05
22    -1.02053204e-13
23    0.000218357703
24    -7.29243171e-05
25    0.000116761491
26    8.37888119e-14
27    -0.000444473809
28    4.07774843e-16
29    0.000232174577
30    1.84853887e-16
31    -0.000154887481
32    -2.98180223e-05
33    -6.74945782e-05
34    -6.85391445e-05
35    -1.02323348e-05
36    -4.92155348e-05
37    -1.29962834e-05
38    -2.46456159e-16
39    -0.000368889272
40    -0.00046090829
41    -8.91193573e-05
42    0.000102614803
43    -5.91160433e-05
44    -0.00031395291
45    1.23749628e-16
46    -1.61948416e-05
47    4.05294708e-05
48    -0.00023781796
49    -0.000323510407
50    -7.19771801e-06
51    -2.73058744e-06
52    -3.02558191e-16
53    1.6021358e-07
54    1.2018883e-06
55    6.26889271e-06
56    2.04825148e-05
57    5.93207626e-05
58    7.2032369e-05
59    3.8038312e-05
60    6.34885992e-06
61    -2.16604253e-05
62    -2.80557695e-15
63    -0.00012791835
64    -2.17079171e-05
65    8.50146674e-05
66    -2.67869833e-16
67    -1.52815832e-05
68    0.00076465469
69    -0.00046762867
70    -6.33290842e-15
71    -0.000670359304
72    0.000371733601
73    -0.000515624938
74    -1.21341639e-13
75    -0.000504588857
76    -0.000141401748
77    -2.2455566e-05
78    -9.68426385e-14
79    1.59425566e-05
80    -3.1010989e-16
81    -7.0107026e-06
82    1.05763933e-15
83    4.15914835e-05
84    2.19006898e-09
85    -1.06672836e-08
86    1.45355944e-07
87    -2.44307788e-07
88    6.57957303e-06
89    2.71444017e-05
90    -1.53357443e-05
91    4.86730927e-06
92    -2.08461615e-06
93    -1.71530132e-15
94    -7.3353534e-05
95    -2.94743876e-05
96    2.62431545e-05
97    -2.248942e-15
98    0.000322297621
99    0.000164940434
100    -9.12849546e-05
101    -7.66807282e-15
102    0.00115975333
103    0.000198001051
104    -0.000159552403
105    8.57263744e-15
106    0.00132336725
107    0.000242753776
108    -8.15859314e-05
109    3.44716437e-14
110    2.27575801e-06
111    8.08284797e-16
112    -1.09561251e-06
113    -6.02633132e-16
114    4.74684901e-06
115    -4.20991173e-06
116    -3.264899e-05
117    -0.000162420502
118    -0.000559161938
119    -0.00130404355
120    -0.000382701493
121    -0.00179611396
122    -1.65646911e-06
123    -2.34084307e-07
124    1.20762606e-15
125    -0.00027890831
126    3.77597563e-05
127    0.000323230331
128    9.25748207e-16
129    -9.43615461e-06
130    1.24733639e-05
131    -0.000188524634
132    8.66981897e-15
133    0.000769632172
134    -0.000501491024
135    -0.000582852194
136    -1.18605239e-13
137    6.45913482e-05
138    -0.00015645585
139    6.74703395e-05
140    4.58691496e-14
141    -5.46812196e-05
142    2.49071314e-16
143    3.08977262e-05
144    4.55947306e-16
145    0.000165148761
146    3.35525815e-09
147    1.45314073e-08
148    1.50370823e-07
149    2.15828361e-07
150    3.44218487e-06
151    1.13016201e-05
152    -5.29070264e-06
153    -2.39409523e-06
154    -9.66810374e-06
155    1.68052569e-16
156    -1.96970138e-05
157    2.42033479e-05
158    3.51077458e-05
159    4.5504868e-15
160    -3.74794621e-05
161    -4.29719449e-05
162    -1.38886446e-06
163    -5.7073905e-15
164    0.000378903607
165    -3.30557188e-05
166    -1.21427091e-06
167    2.34856773e-14
168    0.000594170615
169    -0.000134819524
170    1.14058802e-05
171    -2.56946767e-15
172    -1.44513019e-05
173    -1.48155014e-16
174    2.23476645e-06
175    3.83455916e-17
176    1.40387388e-05
177    7.72630603e-09
178    6.00333931e-09
179    4.08077406e-07
180    -7.47705744e-08
181    1.31886322e-05
182    5.09094397e-05
183    -2.86372622e-05
184    7.52163127e-06
185    -1.21197017e-05
186    -2.63130777e-15
187    -8.49955416e-05
188    -2.72522592e-05
189    4.27513068e-05
190    6.08045665e-15
191    -0.000125180276
192    0.000111109346
193    5.30901297e-05
194    -2.39509143e-14
195    -0.000290635695
196    -7.16535756e-05
197    0.000612706469
198    8.44208316e-14
199    -0.000955302671
200    8.33947066e-05
201    0.000183572837
202    7.82727855e-14
203    6.84556942e-06
204    1.35512261e-16
205    4.71307246e-06
206    6.36315135e-16
207    -1.22747418e-05
208    1.90460584e-07
209    1.27058567e-06
210    7.63138591e-06
211    2.1047368e-05
212    9.91639813e-05
213    0.000264393406
214    1.08023375e-05
215    -5.5101314e-05
216    3.56443657e-05
217    -3.84932592e-15
218    -0.000655058467
219    -0.000724041367
220    0.000433635849
221    7.21990596e-15
222    -1.06766355e-05
223    -3.50953252e-05
224    -0.000140316895
225    -2.66527187e-14
226    0.000920091105
227    0.000287641853
228    -0.000437215592
229    8.32452053e-14
230    0.000360529934
231    0.000287482161
232    -0.000128121922
233    2.9762733e-14
234    0.00031911555
235    -6.14807742e-17
236    0.000126934659
237    -8.05630397e-17
238    -0.000186406317
239    -0.000363256648
240    -0.0028120929
241    -0.0140284763
242    -0.0481623491
243    -0.113806417
244    -0.0416907996
245    -0.152164476
246    0.000201790607
247    -7.05529832e-06
248    -6.6798045e-17
249    -0.000758541016
250    0.000239180919
251    0.000146685409
252    4.51440331e-15
253    0.000148948419
254    -0.000300599771
255    5.34088979e-05
256    -1.16977763e-14
257    -0.00262147512
258    0.000356722235
259    0.000259584432
260    1.19665976e-13
261    0.000119212366
262    0.00012903527
263    2.7928283e-05
264    -9.01346763e-14
265    -0.000177118832
266    -2.35129406e-16
267    -1.68603308e-05
268    7.05924795e-16
269    -0.000167680737
270    -0.000148286346
271    -0.000168782931
272    0.000247899563
273    0.000113561917
274    0.000168130211
275    -3.64416812e-05
276    9.6420027e-16
[5D]