[Molden Format]
[Atoms] (Angs)
  C      1    6     -0.00714236     -1.70213747     -0.00000000
  H      2    1     -2.06882847     -1.44022412      0.00000000
  H      3    1     -0.12337987     -2.77567521      0.00000000
  H      4    1      0.04651892      1.98813947     -0.00000000
  C      5    6     -1.21953563      0.40211669      0.00000000
  O      6    8     -2.25921553      1.03043814      0.00000000
  C      7    6      1.28797806      0.34644937     -0.00000000
  O      8    8      2.31273661      1.00537216     -0.00000000
  N      9    7      0.03446295      0.97739857     -0.00000000
  N     10    7     -1.17287765     -0.98229824      0.00000000
  C     11    6      1.20107039     -1.10433419     -0.00000000
  H     12    1      2.11220096     -1.67699125     -0.00000000
[GTO]
1    0
S    1    1.000000
   4.56324000E+03    1.96665000E-03 
S    1    1.000000
   6.82024000E+02    1.52306000E-02 
S    1    1.000000
   1.54973000E+02    7.61269000E-02 
S    1    1.000000
   4.44553000E+01    2.60801000E-01 
S    1    1.000000
   1.30290000E+01    6.16462000E-01 
S    1    1.000000
   1.82773000E+00    2.21006000E-01 
SP   3    1.000000
   2.09642000E+01    1.14660000E-01   4.02487000E-02 
   4.80331000E+00    9.19999000E-01   2.37594000E-01 
   1.45933000E+00   -3.03068000E-03   8.15854000E-01 
SP   1    1.000000
   4.83456000E-01    1.00000000E+00   1.00000000E+00 
SP   1    1.000000
   1.45585000E-01    1.00000000E+00   1.00000000E+00 
SP   1    1.000000
   4.38000000E-02    1.00000000E+00   1.00000000E+00 
SP   1    1.000000
   1.31927711E-02    1.00000000E+00   1.00000000E+00 
D    1    1.000000
   6.26000000E-01    1.00000000E+00 

2    0
S    3    1.000000
   3.38650000E+01    2.54938000E-02 
   5.09479000E+00    1.90373000E-01 
   1.15879000E+00    8.52161000E-01 
S    1    1.000000
   3.25840000E-01    1.00000000E+00 
S    1    1.000000
   1.02741000E-01    1.00000000E+00 
S    1    1.000000
   3.60000000E-02    1.00000000E+00 
P    1    1.000000
   7.50000000E-01    1.00000000E+00 

3    0
S    3    1.000000
   3.38650000E+01    2.54938000E-02 
   5.09479000E+00    1.90373000E-01 
   1.15879000E+00    8.52161000E-01 
S    1    1.000000
   3.25840000E-01    1.00000000E+00 
S    1    1.000000
   1.02741000E-01    1.00000000E+00 
S    1    1.000000
   3.60000000E-02    1.00000000E+00 
P    1    1.000000
   7.50000000E-01    1.00000000E+00 

4    0
S    3    1.000000
   3.38650000E+01    2.54938000E-02 
   5.09479000E+00    1.90373000E-01 
   1.15879000E+00    8.52161000E-01 
S    1    1.000000
   3.25840000E-01    1.00000000E+00 
S    1    1.000000
   1.02741000E-01    1.00000000E+00 
S    1    1.000000
   3.60000000E-02    1.00000000E+00 
P    1    1.000000
   7.50000000E-01    1.00000000E+00 

5    0
S    1    1.000000
   4.56324000E+03    1.96665000E-03 
S    1    1.000000
   6.82024000E+02    1.52306000E-02 
S    1    1.000000
   1.54973000E+02    7.61269000E-02 
S    1    1.000000
   4.44553000E+01    2.60801000E-01 
S    1    1.000000
   1.30290000E+01    6.16462000E-01 
S    1    1.000000
   1.82773000E+00    2.21006000E-01 
SP   3    1.000000
   2.09642000E+01    1.14660000E-01   4.02487000E-02 
   4.80331000E+00    9.19999000E-01   2.37594000E-01 
   1.45933000E+00   -3.03068000E-03   8.15854000E-01 
SP   1    1.000000
   4.83456000E-01    1.00000000E+00   1.00000000E+00 
SP   1    1.000000
   1.45585000E-01    1.00000000E+00   1.00000000E+00 
SP   1    1.000000
   4.38000000E-02    1.00000000E+00   1.00000000E+00 
SP   1    1.000000
   1.31927711E-02    1.00000000E+00   1.00000000E+00 
D    1    1.000000
   6.26000000E-01    1.00000000E+00 

6    0
S    1    1.000000
   8.58850000E+03    1.89515000E-03 
S    1    1.000000
   1.29723000E+03    1.43859000E-02 
S    1    1.000000
   2.99296000E+02    7.07320000E-02 
S    1    1.000000
   8.73771000E+01    2.40001000E-01 
S    1    1.000000
   2.56789000E+01    5.94797000E-01 
S    1    1.000000
   3.74004000E+00    2.80802000E-01 
SP   3    1.000000
   4.21175000E+01    1.13889000E-01   3.65114000E-02 
   9.62837000E+00    9.20811000E-01   2.37153000E-01 
   2.85332000E+00   -3.27447000E-03   8.19702000E-01 
SP   1    1.000000
   9.05661000E-01    1.00000000E+00   1.00000000E+00 
SP   1    1.000000
   2.55611000E-01    1.00000000E+00   1.00000000E+00 
SP   1    1.000000
   8.45000000E-02    1.00000000E+00   1.00000000E+00 
SP   1    1.000000
   2.54518072E-02    1.00000000E+00   1.00000000E+00 
D    1    1.000000
   1.29200000E+00    1.00000000E+00 

7    0
S    1    1.000000
   4.56324000E+03    1.96665000E-03 
S    1    1.000000
   6.82024000E+02    1.52306000E-02 
S    1    1.000000
   1.54973000E+02    7.61269000E-02 
S    1    1.000000
   4.44553000E+01    2.60801000E-01 
S    1    1.000000
   1.30290000E+01    6.16462000E-01 
S    1    1.000000
   1.82773000E+00    2.21006000E-01 
SP   3    1.000000
   2.09642000E+01    1.14660000E-01   4.02487000E-02 
   4.80331000E+00    9.19999000E-01   2.37594000E-01 
   1.45933000E+00   -3.03068000E-03   8.15854000E-01 
SP   1    1.000000
   4.83456000E-01    1.00000000E+00   1.00000000E+00 
SP   1    1.000000
   1.45585000E-01    1.00000000E+00   1.00000000E+00 
SP   1    1.000000
   4.38000000E-02    1.00000000E+00   1.00000000E+00 
SP   1    1.000000
   1.31927711E-02    1.00000000E+00   1.00000000E+00 
D    1    1.000000
   6.26000000E-01    1.00000000E+00 

8    0
S    1    1.000000
   8.58850000E+03    1.89515000E-03 
S    1    1.000000
   1.29723000E+03    1.43859000E-02 
S    1    1.000000
   2.99296000E+02    7.07320000E-02 
S    1    1.000000
   8.73771000E+01    2.40001000E-01 
S    1    1.000000
   2.56789000E+01    5.94797000E-01 
S    1    1.000000
   3.74004000E+00    2.80802000E-01 
SP   3    1.000000
   4.21175000E+01    1.13889000E-01   3.65114000E-02 
   9.62837000E+00    9.20811000E-01   2.37153000E-01 
   2.85332000E+00   -3.27447000E-03   8.19702000E-01 
SP   1    1.000000
   9.05661000E-01    1.00000000E+00   1.00000000E+00 
SP   1    1.000000
   2.55611000E-01    1.00000000E+00   1.00000000E+00 
SP   1    1.000000
   8.45000000E-02    1.00000000E+00   1.00000000E+00 
SP   1    1.000000
   2.54518072E-02    1.00000000E+00   1.00000000E+00 
D    1    1.000000
   1.29200000E+00    1.00000000E+00 

9    0
S    1    1.000000
   6.29348000E+03    1.96979000E-03 
S    1    1.000000
   9.49044000E+02    1.49613000E-02 
S    1    1.000000
   2.18776000E+02    7.35006000E-02 
S    1    1.000000
   6.36916000E+01    2.48937000E-01 
S    1    1.000000
   1.88282000E+01    6.02460000E-01 
S    1    1.000000
   2.72023000E+00    2.56202000E-01 
SP   3    1.000000
   3.06331000E+01    1.11906000E-01   3.83119000E-02 
   7.02614000E+00    9.21666000E-01   2.37403000E-01 
   2.11205000E+00   -2.56919000E-03   8.17592000E-01 
SP   1    1.000000
   6.84009000E-01    1.00000000E+00   1.00000000E+00 
SP   1    1.000000
   2.00878000E-01    1.00000000E+00   1.00000000E+00 
SP   1    1.000000
   6.39000000E-02    1.00000000E+00   1.00000000E+00 
SP   1    1.000000
   1.92469880E-02    1.00000000E+00   1.00000000E+00 
D    1    1.000000
   9.13000000E-01    1.00000000E+00 

10    0
S    1    1.000000
   6.29348000E+03    1.96979000E-03 
S    1    1.000000
   9.49044000E+02    1.49613000E-02 
S    1    1.000000
   2.18776000E+02    7.35006000E-02 
S    1    1.000000
   6.36916000E+01    2.48937000E-01 
S    1    1.000000
   1.88282000E+01    6.02460000E-01 
S    1    1.000000
   2.72023000E+00    2.56202000E-01 
SP   3    1.000000
   3.06331000E+01    1.11906000E-01   3.83119000E-02 
   7.02614000E+00    9.21666000E-01   2.37403000E-01 
   2.11205000E+00   -2.56919000E-03   8.17592000E-01 
SP   1    1.000000
   6.84009000E-01    1.00000000E+00   1.00000000E+00 
SP   1    1.000000
   2.00878000E-01    1.00000000E+00   1.00000000E+00 
SP   1    1.000000
   6.39000000E-02    1.00000000E+00   1.00000000E+00 
SP   1    1.000000
   1.92469880E-02    1.00000000E+00   1.00000000E+00 
D    1    1.000000
   9.13000000E-01    1.00000000E+00 

11    0
S    1    1.000000
   4.56324000E+03    1.96665000E-03 
S    1    1.000000
   6.82024000E+02    1.52306000E-02 
S    1    1.000000
   1.54973000E+02    7.61269000E-02 
S    1    1.000000
   4.44553000E+01    2.60801000E-01 
S    1    1.000000
   1.30290000E+01    6.16462000E-01 
S    1    1.000000
   1.82773000E+00    2.21006000E-01 
SP   3    1.000000
   2.09642000E+01    1.14660000E-01   4.02487000E-02 
   4.80331000E+00    9.19999000E-01   2.37594000E-01 
   1.45933000E+00   -3.03068000E-03   8.15854000E-01 
SP   1    1.000000
   4.83456000E-01    1.00000000E+00   1.00000000E+00 
SP   1    1.000000
   1.45585000E-01    1.00000000E+00   1.00000000E+00 
SP   1    1.000000
   4.38000000E-02    1.00000000E+00   1.00000000E+00 
SP   1    1.000000
   1.31927711E-02    1.00000000E+00   1.00000000E+00 
D    1    1.000000
   6.26000000E-01    1.00000000E+00 

12    0
S    3    1.000000
   3.38650000E+01    2.54938000E-02 
   5.09479000E+00    1.90373000E-01 
   1.15879000E+00    8.52161000E-01 
S    1    1.000000
   3.25840000E-01    1.00000000E+00 
S    1    1.000000
   1.02741000E-01    1.00000000E+00 
S    1    1.000000
   3.60000000E-02    1.00000000E+00 
P    1    1.000000
   7.50000000E-01    1.00000000E+00 

[MO]
Sym=X
Ene=0.153253
Spin=Alpha
Occup=1
1    -1.84064516e-08
2    -2.21009324e-07
3    -6.8650273e-07
4    -4.79444189e-06
5    6.98194228e-06
6    -3.80727397e-05
7    -0.000107844809
8    0.00013521971
9    7.5319754e-05
10    2.54856975e-15
11    0.000507205304
12    0.000562463849
13    0.000300374907
14    2.17354223e-15
15    -0.000996670542
16    -0.00029054981
17    -0.00061225812
18    3.55388578e-15
19    -0.00259775155
20    -0.000135060799
21    -0.00138006594
22    6.2848423e-14
23    -0.000220926906
24    4.28675313e-06
25    -0.000262312748
26    -6.73878445e-14
27    0.000297869149
28    -2.8227707e-16
29    -2.2932709e-05
30    1.61043547e-15
31    0.00020986069
32    7.22148369e-06
33    5.65997452e-05
34    0.000100691733
35    0.000318345174
36    1.53391944e-05
37    -4.79604108e-06
38    -2.97541074e-16
39    2.90099453e-05
40    6.81783916e-05
41    -0.000410675366
42    -0.000690260438
43    5.87961251e-05
44    6.87536571e-05
45    1.20516909e-15
46    1.34653525e-05
47    4.03780713e-05
48    2.88320689e-05
49    0.000251988528
50    5.6361143e-06
51    -5.33919607e-06
52    -2.56515711e-15
53    1.44477163e-08
54    1.37649379e-07
55    5.00525668e-07
56    2.44233166e-06
57    -1.04562711e-06
58    -2.70026402e-05
59    2.26456201e-05
60    -4.30184303e-06
61    4.33335961e-06
62    -3.86086696e-15
63    7.43173563e-05
64    1.10662765e-05
65    -1.55527601e-05
66    -1.06227027e-14
67    -0.000605504508
68    -0.000497897943
69    0.000270310625
70    -6.45005644e-15
71    9.95575155e-05
72    -0.00021021309
73    -8.95658681e-05
74    7.73499034e-14
75    7.89234338e-05
76    -7.35793481e-05
77    4.47923318e-05
78    6.55784081e-14
79    3.57839188e-06
80    -1.65188326e-15
81    9.57457195e-06
82    4.41591531e-16
83    1.9604934e-06
84    -5.30054003e-10
85    4.5047133e-09
86    -3.94221971e-08
87    9.57670673e-08
88    -2.02169731e-06
89    -8.57412437e-06
90    5.01496925e-06
91    -2.6600749e-06
92    7.21517934e-07
93    -3.42956056e-15
94    2.24201272e-05
95    1.377082e-05
96    -5.2722004e-06
97    -4.85996053e-15
98    -0.000104128579
99    -4.97776083e-05
100    2.72247498e-05
101    -7.69733495e-15
102    -0.000573373231
103    -0.000137839445
104    8.89668344e-05
105    -1.47783017e-14
106    -0.000129872862
107    5.31698539e-05
108    0.000112310211
109    -3.18414944e-14
110    -3.16543411e-07
111    4.73219871e-16
112    1.21947972e-06
113    -7.06806537e-16
114    1.23008696e-06
115    1.73599419e-05
116    0.000134418619
117    0.000670260541
118    0.00230161855
119    0.00542536631
120    0.00184635207
121    0.00727678493
122    -1.8289334e-05
123    -7.1599038e-05
124    -1.73705974e-17
125    0.000581345728
126    -2.30108788e-05
127    -0.000640192949
128    4.09130865e-15
129    -0.000584964449
130    0.000514387962
131    0.00092459901
132    -3.95307935e-15
133    -0.0019133879
134    0.000791508991
135    0.00110454811
136    7.97518824e-14
137    -0.000314103968
138    -7.36240569e-05
139    1.86211872e-06
140    -3.99569782e-14
141    6.43220264e-05
142    -8.66448316e-16
143    -7.67608743e-05
144    2.59176874e-15
145    -0.000354253599
146    -2.15532666e-09
147    2.17388445e-08
148    -1.66948327e-07
149    4.51894797e-07
150    -9.07980988e-06
151    -3.9048704e-05
152    2.34415955e-05
153    4.31280031e-06
154    2.13170376e-05
155    1.92723881e-15
156    8.40521806e-05
157    -5.41992509e-05
158    -4.91996724e-05
159    9.63071917e-16
160    -0.000200807702
161    0.000130233535
162    3.77517146e-06
163    6.57889245e-15
164    -0.000846291089
165    0.000117635954
166    4.49260641e-05
167    -5.42006386e-15
168    -0.00186379358
169    0.00037368903
170    0.000104550614
171    4.7280648e-15
172    3.24857123e-05
173    -8.66369029e-17
174    -3.48021015e-06
175    -1.77267977e-16
176    -2.31477943e-05
177    1.96529604e-09
178    6.26044085e-08
179    -3.28503413e-08
180    1.19335098e-06
181    -9.39495679e-06
182    -4.68481166e-05
183    3.12662564e-05
184    -2.32354377e-05
185    1.35620759e-05
186    -1.00497287e-15
187    6.00727126e-05
188    9.98083438e-05
189    -4.38545368e-05
190    -1.04831861e-14
191    0.000290615315
192    -0.000199032982
193    -0.00022376028
194    1.18217396e-14
195    0.000636965931
196    -0.000271877187
197    -0.000304447344
198    -6.2410291e-14
199    0.000738908325
200    0.000601095531
201    -0.000194283412
202    -4.08551641e-14
203    -3.92886444e-05
204    1.39173244e-16
205    -6.69928671e-06
206    1.45766598e-15
207    2.01512816e-05
208    4.18572412e-09
209    8.15615978e-08
210    4.60660642e-08
211    1.5249207e-06
212    -8.9769656e-06
213    -4.63504038e-05
214    3.32342985e-05
215    -2.68466644e-05
216    8.50887914e-06
217    1.17309279e-15
218    6.01486502e-05
219    9.65512592e-05
220    -4.29814151e-05
221    -6.3195123e-15
222    0.000300581288
223    0.000155108151
224    0.000190172124
225    1.05260309e-14
226    0.000984882783
227    0.000427096419
228    0.000267832216
229    -5.72533713e-14
230    0.000578314728
231    4.49952097e-05
232    0.000231814723
233    -1.04324618e-14
234    -2.70330738e-05
235    -1.37376605e-15
236    -1.18655205e-05
237    6.22567831e-16
238    4.03874846e-05
239    0.00110900055
240    0.00858559266
241    0.0428274966
242    0.147047634
243    0.347356415
244    0.127036708
245    0.46497315
246    -0.000182169656
247    0.000233294572
248    3.52075416e-15
249    0.00182909404
250    -4.01490849e-05
251    -0.000139955195
252    1.51588379e-15
253    0.00185600991
254    -0.000793546097
255    0.00060093875
256    1.52281426e-14
257    0.00473421026
258    -0.00102027566
259    0.00103769555
260    -7.16366347e-14
261    0.000275279967
262    9.74054449e-05
263    0.000229357947
264    8.53414236e-14
265    6.79379357e-05
266    2.1512504e-17
267    -9.56630811e-05
268    -2.1230176e-16
269    7.94141672e-05
270    0.000378864931
271    0.000452201796
272    0.000281237675
273    0.000476269219
274    -0.000267198248
275    0.000154565336
276    1.5376352e-15
[5D]