[Molden Format]
[Atoms] (Angs)
  C      1    6     -0.13173890     -1.79208980     -0.00000000
  H      2    1     -2.14962000     -1.30978739     -0.00000000
  H      3    1     -0.31599560     -2.86503115     -0.00000000
  H      4    1      0.14407746      2.04280963     -0.00000000
  C      5    6     -1.17258876      0.48030861     -0.00000000
  O      6    8     -2.25008207      1.06833796     -0.00000000
  C      7    6      1.31158357      0.28308717      0.00000000
  O      8    8      2.36361668      0.96389345      0.00000000
  N      9    7      0.07017030      1.03138997     -0.00000000
  N     10    7     -1.19586868     -0.94982644     -0.00000000
  C     11    6      1.19165158     -1.13169473      0.00000000
  H     12    1      2.09970506     -1.73445456      0.00000000
[GTO]
1    0
S    1    1.000000
   4.56324000E+03    1.96665000E-03 
S    1    1.000000
   6.82024000E+02    1.52306000E-02 
S    1    1.000000
   1.54973000E+02    7.61269000E-02 
S    1    1.000000
   4.44553000E+01    2.60801000E-01 
S    1    1.000000
   1.30290000E+01    6.16462000E-01 
S    1    1.000000
   1.82773000E+00    2.21006000E-01 
SP   3    1.000000
   2.09642000E+01    1.14660000E-01   4.02487000E-02 
   4.80331000E+00    9.19999000E-01   2.37594000E-01 
   1.45933000E+00   -3.03068000E-03   8.15854000E-01 
SP   1    1.000000
   4.83456000E-01    1.00000000E+00   1.00000000E+00 
SP   1    1.000000
   1.45585000E-01    1.00000000E+00   1.00000000E+00 
SP   1    1.000000
   4.38000000E-02    1.00000000E+00   1.00000000E+00 
SP   1    1.000000
   1.31927711E-02    1.00000000E+00   1.00000000E+00 
D    1    1.000000
   6.26000000E-01    1.00000000E+00 

2    0
S    3    1.000000
   3.38650000E+01    2.54938000E-02 
   5.09479000E+00    1.90373000E-01 
   1.15879000E+00    8.52161000E-01 
S    1    1.000000
   3.25840000E-01    1.00000000E+00 
S    1    1.000000
   1.02741000E-01    1.00000000E+00 
S    1    1.000000
   3.60000000E-02    1.00000000E+00 
P    1    1.000000
   7.50000000E-01    1.00000000E+00 

3    0
S    3    1.000000
   3.38650000E+01    2.54938000E-02 
   5.09479000E+00    1.90373000E-01 
   1.15879000E+00    8.52161000E-01 
S    1    1.000000
   3.25840000E-01    1.00000000E+00 
S    1    1.000000
   1.02741000E-01    1.00000000E+00 
S    1    1.000000
   3.60000000E-02    1.00000000E+00 
P    1    1.000000
   7.50000000E-01    1.00000000E+00 

4    0
S    3    1.000000
   3.38650000E+01    2.54938000E-02 
   5.09479000E+00    1.90373000E-01 
   1.15879000E+00    8.52161000E-01 
S    1    1.000000
   3.25840000E-01    1.00000000E+00 
S    1    1.000000
   1.02741000E-01    1.00000000E+00 
S    1    1.000000
   3.60000000E-02    1.00000000E+00 
P    1    1.000000
   7.50000000E-01    1.00000000E+00 

5    0
S    1    1.000000
   4.56324000E+03    1.96665000E-03 
S    1    1.000000
   6.82024000E+02    1.52306000E-02 
S    1    1.000000
   1.54973000E+02    7.61269000E-02 
S    1    1.000000
   4.44553000E+01    2.60801000E-01 
S    1    1.000000
   1.30290000E+01    6.16462000E-01 
S    1    1.000000
   1.82773000E+00    2.21006000E-01 
SP   3    1.000000
   2.09642000E+01    1.14660000E-01   4.02487000E-02 
   4.80331000E+00    9.19999000E-01   2.37594000E-01 
   1.45933000E+00   -3.03068000E-03   8.15854000E-01 
SP   1    1.000000
   4.83456000E-01    1.00000000E+00   1.00000000E+00 
SP   1    1.000000
   1.45585000E-01    1.00000000E+00   1.00000000E+00 
SP   1    1.000000
   4.38000000E-02    1.00000000E+00   1.00000000E+00 
SP   1    1.000000
   1.31927711E-02    1.00000000E+00   1.00000000E+00 
D    1    1.000000
   6.26000000E-01    1.00000000E+00 

6    0
S    1    1.000000
   8.58850000E+03    1.89515000E-03 
S    1    1.000000
   1.29723000E+03    1.43859000E-02 
S    1    1.000000
   2.99296000E+02    7.07320000E-02 
S    1    1.000000
   8.73771000E+01    2.40001000E-01 
S    1    1.000000
   2.56789000E+01    5.94797000E-01 
S    1    1.000000
   3.74004000E+00    2.80802000E-01 
SP   3    1.000000
   4.21175000E+01    1.13889000E-01   3.65114000E-02 
   9.62837000E+00    9.20811000E-01   2.37153000E-01 
   2.85332000E+00   -3.27447000E-03   8.19702000E-01 
SP   1    1.000000
   9.05661000E-01    1.00000000E+00   1.00000000E+00 
SP   1    1.000000
   2.55611000E-01    1.00000000E+00   1.00000000E+00 
SP   1    1.000000
   8.45000000E-02    1.00000000E+00   1.00000000E+00 
SP   1    1.000000
   2.54518072E-02    1.00000000E+00   1.00000000E+00 
D    1    1.000000
   1.29200000E+00    1.00000000E+00 

7    0
S    1    1.000000
   4.56324000E+03    1.96665000E-03 
S    1    1.000000
   6.82024000E+02    1.52306000E-02 
S    1    1.000000
   1.54973000E+02    7.61269000E-02 
S    1    1.000000
   4.44553000E+01    2.60801000E-01 
S    1    1.000000
   1.30290000E+01    6.16462000E-01 
S    1    1.000000
   1.82773000E+00    2.21006000E-01 
SP   3    1.000000
   2.09642000E+01    1.14660000E-01   4.02487000E-02 
   4.80331000E+00    9.19999000E-01   2.37594000E-01 
   1.45933000E+00   -3.03068000E-03   8.15854000E-01 
SP   1    1.000000
   4.83456000E-01    1.00000000E+00   1.00000000E+00 
SP   1    1.000000
   1.45585000E-01    1.00000000E+00   1.00000000E+00 
SP   1    1.000000
   4.38000000E-02    1.00000000E+00   1.00000000E+00 
SP   1    1.000000
   1.31927711E-02    1.00000000E+00   1.00000000E+00 
D    1    1.000000
   6.26000000E-01    1.00000000E+00 

8    0
S    1    1.000000
   8.58850000E+03    1.89515000E-03 
S    1    1.000000
   1.29723000E+03    1.43859000E-02 
S    1    1.000000
   2.99296000E+02    7.07320000E-02 
S    1    1.000000
   8.73771000E+01    2.40001000E-01 
S    1    1.000000
   2.56789000E+01    5.94797000E-01 
S    1    1.000000
   3.74004000E+00    2.80802000E-01 
SP   3    1.000000
   4.21175000E+01    1.13889000E-01   3.65114000E-02 
   9.62837000E+00    9.20811000E-01   2.37153000E-01 
   2.85332000E+00   -3.27447000E-03   8.19702000E-01 
SP   1    1.000000
   9.05661000E-01    1.00000000E+00   1.00000000E+00 
SP   1    1.000000
   2.55611000E-01    1.00000000E+00   1.00000000E+00 
SP   1    1.000000
   8.45000000E-02    1.00000000E+00   1.00000000E+00 
SP   1    1.000000
   2.54518072E-02    1.00000000E+00   1.00000000E+00 
D    1    1.000000
   1.29200000E+00    1.00000000E+00 

9    0
S    1    1.000000
   6.29348000E+03    1.96979000E-03 
S    1    1.000000
   9.49044000E+02    1.49613000E-02 
S    1    1.000000
   2.18776000E+02    7.35006000E-02 
S    1    1.000000
   6.36916000E+01    2.48937000E-01 
S    1    1.000000
   1.88282000E+01    6.02460000E-01 
S    1    1.000000
   2.72023000E+00    2.56202000E-01 
SP   3    1.000000
   3.06331000E+01    1.11906000E-01   3.83119000E-02 
   7.02614000E+00    9.21666000E-01   2.37403000E-01 
   2.11205000E+00   -2.56919000E-03   8.17592000E-01 
SP   1    1.000000
   6.84009000E-01    1.00000000E+00   1.00000000E+00 
SP   1    1.000000
   2.00878000E-01    1.00000000E+00   1.00000000E+00 
SP   1    1.000000
   6.39000000E-02    1.00000000E+00   1.00000000E+00 
SP   1    1.000000
   1.92469880E-02    1.00000000E+00   1.00000000E+00 
D    1    1.000000
   9.13000000E-01    1.00000000E+00 

10    0
S    1    1.000000
   6.29348000E+03    1.96979000E-03 
S    1    1.000000
   9.49044000E+02    1.49613000E-02 
S    1    1.000000
   2.18776000E+02    7.35006000E-02 
S    1    1.000000
   6.36916000E+01    2.48937000E-01 
S    1    1.000000
   1.88282000E+01    6.02460000E-01 
S    1    1.000000
   2.72023000E+00    2.56202000E-01 
SP   3    1.000000
   3.06331000E+01    1.11906000E-01   3.83119000E-02 
   7.02614000E+00    9.21666000E-01   2.37403000E-01 
   2.11205000E+00   -2.56919000E-03   8.17592000E-01 
SP   1    1.000000
   6.84009000E-01    1.00000000E+00   1.00000000E+00 
SP   1    1.000000
   2.00878000E-01    1.00000000E+00   1.00000000E+00 
SP   1    1.000000
   6.39000000E-02    1.00000000E+00   1.00000000E+00 
SP   1    1.000000
   1.92469880E-02    1.00000000E+00   1.00000000E+00 
D    1    1.000000
   9.13000000E-01    1.00000000E+00 

11    0
S    1    1.000000
   4.56324000E+03    1.96665000E-03 
S    1    1.000000
   6.82024000E+02    1.52306000E-02 
S    1    1.000000
   1.54973000E+02    7.61269000E-02 
S    1    1.000000
   4.44553000E+01    2.60801000E-01 
S    1    1.000000
   1.30290000E+01    6.16462000E-01 
S    1    1.000000
   1.82773000E+00    2.21006000E-01 
SP   3    1.000000
   2.09642000E+01    1.14660000E-01   4.02487000E-02 
   4.80331000E+00    9.19999000E-01   2.37594000E-01 
   1.45933000E+00   -3.03068000E-03   8.15854000E-01 
SP   1    1.000000
   4.83456000E-01    1.00000000E+00   1.00000000E+00 
SP   1    1.000000
   1.45585000E-01    1.00000000E+00   1.00000000E+00 
SP   1    1.000000
   4.38000000E-02    1.00000000E+00   1.00000000E+00 
SP   1    1.000000
   1.31927711E-02    1.00000000E+00   1.00000000E+00 
D    1    1.000000
   6.26000000E-01    1.00000000E+00 

12    0
S    3    1.000000
   3.38650000E+01    2.54938000E-02 
   5.09479000E+00    1.90373000E-01 
   1.15879000E+00    8.52161000E-01 
S    1    1.000000
   3.25840000E-01    1.00000000E+00 
S    1    1.000000
   1.02741000E-01    1.00000000E+00 
S    1    1.000000
   3.60000000E-02    1.00000000E+00 
P    1    1.000000
   7.50000000E-01    1.00000000E+00 

[MO]
Sym=X
Ene=0.92638
Spin=Alpha
Occup=1
1    8.58391972e-10
2    -6.78048567e-09
3    6.31050654e-08
4    -1.64653492e-07
5    2.92245895e-06
6    1.29898638e-05
7    -7.40921235e-06
8    2.68219157e-06
9    5.78961706e-06
10    -7.48525285e-16
11    -1.62812941e-05
12    -1.12819281e-05
13    -2.5468298e-05
14    8.59732421e-17
15    -9.91115916e-05
16    -2.15912982e-05
17    -6.06944555e-05
18    -1.34135291e-16
19    -0.000890038338
20    1.40382457e-05
21    -0.000799333413
22    -8.11366709e-15
23    -0.00488369854
24    -0.000381721155
25    -0.00048680252
26    6.51241659e-14
27    -5.58403592e-07
28    -2.0699694e-16
29    4.45830076e-06
30    5.17279366e-17
31    -2.61921538e-06
32    -5.88102152e-06
33    1.56770381e-05
34    0.000156370792
35    0.000319583606
36    1.27284723e-06
37    -8.40497714e-07
38    -1.20982113e-16
39    -1.27738847e-06
40    -1.23972776e-05
41    -5.04792882e-05
42    -0.000711213171
43    -3.54389295e-07
44    -3.74979167e-06
45    -3.51172958e-16
46    -0.000229354821
47    -8.02031345e-05
48    -0.000297130834
49    -0.000381323159
50    1.50667535e-05
51    9.57381426e-05
52    -2.91779747e-16
53    -2.48525436e-08
54    -1.89085723e-07
55    -8.98414697e-07
56    -2.79823662e-06
57    -2.64643744e-06
58    5.78639162e-05
59    2.7978923e-06
60    -5.58368703e-05
61    -2.2366453e-05
62    -3.1169681e-16
63    -0.000317342006
64    -0.000303208547
65    -0.000126820732
66    -3.35556244e-15
67    0.000299529382
68    0.00019434698
69    0.000105930839
70    2.37082475e-15
71    0.00115476432
72    0.000662609971
73    -0.000166570357
74    -1.1645303e-14
75    0.00138529
76    0.00012960363
77    -0.000394387221
78    -3.72121078e-14
79    -0.00013565041
80    -4.03544638e-16
81    2.0557177e-05
82    6.05790045e-16
83    -0.000138192392
84    -7.18051268e-09
85    -7.06468876e-08
86    -2.33581962e-07
87    -1.22815639e-06
88    1.0590023e-06
89    1.26619793e-05
90    -1.37275804e-05
91    1.56398894e-05
92    3.84627882e-06
93    2.8399448e-17
94    -1.76260726e-05
95    -3.23133828e-05
96    6.61556409e-06
97    -2.61813579e-15
98    -3.71480993e-05
99    -3.79659357e-06
100    -2.34503084e-05
101    1.31016613e-15
102    0.000208093862
103    6.04958734e-06
104    -1.22838009e-05
105    -7.98642628e-15
106    0.000726576575
107    2.71619421e-05
108    -0.000110629534
109    2.54697609e-14
110    -3.80024585e-06
111    1.87394271e-16
112    4.26353208e-06
113    -5.52149437e-17
114    -2.25213345e-05
115    -1.33189658e-08
116    -1.53672081e-07
117    -3.47323941e-07
118    -2.67310095e-06
119    5.58080326e-06
120    4.49259278e-05
121    -1.03937456e-05
122    3.13915169e-05
123    -2.21497373e-05
124    -9.29766642e-16
125    -0.00022665229
126    0.000231291997
127    -0.000149377908
128    1.49922956e-15
129    0.000247049514
130    -0.000134307846
131    7.27145381e-05
132    -4.03061219e-16
133    0.00115506926
134    -0.000820919403
135    -0.000152242568
136    -1.32838598e-14
137    0.00385057473
138    -0.000158521059
139    -0.000600976478
140    8.02059931e-14
141    0.00012876713
142    2.58951824e-16
143    -1.38984062e-06
144    7.13527866e-16
145    -9.80447791e-05
146    -6.28163448e-09
147    -6.85986299e-08
148    -1.89070842e-07
149    -1.20707353e-06
150    2.32763312e-06
151    1.70363607e-05
152    -1.61144222e-05
153    -1.73625533e-05
154    1.89102685e-06
155    -2.25101145e-16
156    -2.2956563e-05
157    3.71617667e-05
158    1.64991728e-05
159    1.6965727e-15
160    -3.49158903e-05
161    -1.98202942e-05
162    -5.56418093e-06
163    -3.29497108e-15
164    0.00018409196
165    3.59606473e-05
166    -2.65128247e-05
167    7.08685876e-15
168    0.000896846374
169    -0.000110038246
170    -7.32759228e-05
171    -9.22507727e-15
172    -5.75313541e-06
173    1.48644993e-16
174    5.55918525e-06
175    3.49717212e-16
176    -1.53391215e-05
177    -0.00109722759
178    -0.00835429586
179    -0.0409340595
180    -0.138945259
181    -0.335941985
182    -0.144035605
183    -0.467502609
184    0.000175819798
185    0.000253866821
186    -4.65772166e-16
187    -0.00424256198
188    -8.86677365e-05
189    -0.000118687447
190    -1.68169687e-16
191    0.000220976907
192    6.59583207e-05
193    0.000136108712
194    -4.02060854e-15
195    -0.00248552774
196    0.000101270989
197    0.000902481437
198    8.57677091e-15
199    -0.00271278556
200    -0.000167839146
201    0.000749848973
202    -9.26668543e-15
203    -1.59506698e-05
204    2.39719422e-16
205    -1.91580996e-05
206    3.92696054e-16
207    2.38951634e-05
208    -3.55349293e-07
209    -2.74482352e-06
210    -1.31697002e-05
211    -4.57981283e-05
212    -0.000101334583
213    -1.49983618e-05
214    -0.000173929734
215    5.99044894e-06
216    2.04887802e-05
217    -7.24250712e-16
218    -4.2965366e-05
219    -1.04132732e-05
220    -5.93902003e-05
221    3.51560393e-16
222    2.51186677e-05
223    5.50259491e-05
224    7.15384132e-05
225    -5.1437114e-15
226    0.00052510603
227    0.000345893723
228    0.000144334752
229    5.85683236e-15
230    0.00110619626
231    0.000637601377
232    -0.000191167364
233    -1.67655775e-14
234    -1.17479956e-05
235    -2.52427487e-16
236    6.40114533e-06
237    -1.37526805e-16
238    2.14355354e-05
239    1.30491972e-09
240    -3.58406815e-08
241    1.5161633e-07
242    -7.84956457e-07
243    9.44568038e-06
244    4.41027402e-05
245    -2.64861688e-05
246    -3.14507313e-06
247    1.82557875e-05
248    -1.6205422e-15
249    -8.70552674e-05
250    7.73477563e-06
251    -8.64956878e-05
252    2.85438732e-15
253    0.000155079254
254    -0.000100401338
255    9.77561762e-05
256    -8.89818446e-15
257    6.88320849e-05
258    6.54748585e-05
259    0.000141977249
260    2.42298223e-14
261    4.21241311e-05
262    -0.000526785089
263    -0.000685414532
264    -9.13956825e-14
265    6.96439383e-06
266    -2.20047793e-16
267    5.1253494e-06
268    2.18110684e-16
269    3.88437899e-05
270    -6.45778698e-06
271    2.01036087e-06
272    8.18523046e-05
273    -1.90421712e-05
274    2.94218065e-06
275    -6.92358347e-06
276    1.87193081e-17
Sym=X
Ene=0.917644
Spin=Alpha
Occup=1
1    3.26032649e-08
2    2.67683805e-07
3    1.16075096e-06
4    4.17827771e-06
5    3.30560633e-07
6    -8.50455656e-05
7    1.67973087e-05
8    -3.74601242e-05
9    3.02330844e-05
10    2.56961754e-15
11    0.000314948711
12    -0.000334331891
13    0.000285150275
14    3.98540205e-15
15    -9.74958823e-05
16    5.55596496e-05
17    2.99638165e-05
18    1.66759119e-15
19    -0.0018975197
20    -6.89309319e-05
21    -0.00124139388
22    2.62667693e-14
23    -0.00310901721
24    -0.000295407708
25    -0.000486167697
26    -3.6682106e-14
27    -0.000227867943
28    6.08513523e-16
29    -4.17796723e-05
30    -9.36084413e-16
31    4.56108583e-05
32    0.000215669248
33    0.000196731834
34    0.000188547151
35    0.000209067118
36    0.000116378834
37    3.48132664e-05
38    2.17703316e-15
39    1.00872746e-05
40    0.00011393833
41    -0.000144583055
42    -0.000921342123
43    -9.58868542e-06
44    5.65548969e-05
45    1.61268943e-15
46    4.77090845e-06
47    -9.95680646e-06
48    -0.000215843377
49    -0.000458129995
50    5.09981441e-07
51    -9.59557678e-07
52    -1.02829939e-15
53    1.16091344e-08
54    1.65677488e-07
55    2.22114128e-07
56    2.91288453e-06
57    -1.23983541e-05
58    -8.10881003e-05
59    2.7171734e-05
60    -3.88341948e-06
61    -2.62591888e-05
62    8.26315449e-16
63    0.000266099684
64    1.02083533e-05
65    -0.000372459706
66    6.61668365e-15
67    -3.0972332e-05
68    5.09592734e-05
69    -1.56189481e-05
70    -4.27258902e-15
71    -0.00048301529
72    -0.000109068311
73    0.00033788868
74    4.78774714e-14
75    -0.000407706635
76    -0.000205527066
77    -0.000138553766
78    5.32946939e-14
79    -3.4043564e-05
80    -9.89717393e-16
81    -3.71545017e-05
82    -1.55633624e-15
83    -0.000206128868
84    6.87188283e-09
85    7.00303499e-08
86    2.18292432e-07
87    1.22145667e-06
88    -1.54629134e-06
89    -1.46711582e-05
90    1.47907184e-05
91    -4.63135188e-06
92    1.62533498e-05
93    1.61765531e-15
94    1.99516755e-05
95    2.62368709e-05
96    -2.47568543e-05
97    7.05832503e-16
98    5.97646098e-05
99    1.5258617e-05
100    6.38842776e-06
101    5.24461349e-15
102    -6.39003856e-05
103    -1.3508368e-05
104    -2.20740035e-06
105    5.55830644e-16
106    -0.000413050418
107    -8.06826905e-05
108    -5.59836052e-05
109    -2.41117006e-14
110    -1.92268205e-05
111    -4.8800566e-16
112    -4.95368801e-06
113    -8.36216474e-17
114    -6.36736942e-06
115    -5.47097596e-10
116    8.69565688e-09
117    -4.95123923e-08
118    1.96065718e-07
119    -2.74720572e-06
120    -1.28356922e-05
121    7.52631514e-06
122    5.74207389e-06
123    5.09072658e-06
124    -1.97108179e-15
125    1.28339017e-05
126    -2.10458381e-05
127    -2.73846898e-05
128    -5.5159001e-15
129    0.000317585883
130    -5.07372531e-06
131    3.9923643e-05
132    -7.31484662e-15
133    0.000491727309
134    -0.000438922673
135    -3.52108534e-06
136    1.8937145e-14
137    0.00253647245
138    -0.00030906181
139    -0.000287819665
140    -6.25364718e-14
141    1.41360778e-06
142    -1.39383002e-15
143    -7.94802002e-06
144    -1.59424397e-15
145    -4.80066921e-06
146    -4.19816596e-10
147    2.00567232e-09
148    -2.76097743e-08
149    4.80806089e-08
150    -1.19192323e-06
151    -4.63499497e-06
152    2.79207457e-06
153    6.28849741e-07
154    7.15701492e-07
155    -1.95535173e-15
156    1.05426054e-05
157    -3.74765054e-06
158    -3.86564567e-06
159    -5.79322595e-15
160    -3.83920812e-05
161    2.148836e-05
162    1.3784594e-05
163    -1.03358731e-15
164    -0.000146884598
165    8.3628432e-05
166    2.12806327e-05
167    -1.65236864e-14
168    0.000340129016
169    -1.92368563e-05
170    2.67185101e-05
171    1.1194424e-14
172    5.28987611e-07
173    1.90375508e-16
174    4.77654839e-07
175    2.98050513e-16
176    -3.63929416e-07
177    -3.37812098e-07
178    -2.53810667e-06
179    -1.26770954e-05
180    -4.20911258e-05
181    -0.000110119473
182    -7.47314025e-05
183    -0.000123126958
184    1.38529957e-05
185    1.0793681e-05
186    2.15873569e-16
187    4.40227731e-05
188    -4.76381893e-05
189    -3.05004541e-05
190    -2.62509459e-15
191    -2.59612069e-05
192    -2.69419273e-05
193    0.000103199323
194    6.46270684e-15
195    -0.000581230152
196    9.02306199e-05
197    0.000507943679
198    -2.26182585e-14
199    -0.00107260961
200    -0.000339567548
201    0.000469737904
202    -2.89358158e-14
203    2.13954838e-05
204    -3.72128142e-16
205    -6.570445e-06
206    -1.00927001e-15
207    1.46274134e-05
208    0.00109701384
209    0.00835262791
210    0.0409258658
211    0.138915497
212    0.335879289
213    0.144319908
214    0.467258804
215    0.000399500047
216    0.000105462568
217    4.02828262e-15
218    0.0046028954
219    -0.000251162408
220    -3.25933317e-05
221    2.4285204e-15
222    -0.000862431465
223    0.00012187896
224    -1.50742004e-05
225    1.46209466e-14
226    0.00253428541
227    0.000712467682
228    0.000345591771
229    -1.87520952e-14
230    0.00212950357
231    0.000573024563
232    0.000114631555
233    -2.10153053e-14
234    3.23177232e-05
235    2.22504243e-16
236    0.00022418955
237    5.96947915e-16
238    5.92695723e-05
239    -1.32168309e-09
240    2.80832804e-08
241    -1.34967984e-07
242    6.22774749e-07
243    -8.00909136e-06
244    -3.71153005e-05
245    2.23888402e-05
246    1.572353e-05
247    6.09572605e-06
248    7.85268222e-16
249    7.28852399e-05
250    -7.0877463e-05
251    -3.4764754e-05
252    -3.08230155e-15
253    -0.000187722144
254    0.00014218689
255    -8.66041157e-05
256    6.05780298e-15
257    0.00132177159
258    -0.000123883016
259    0.000277661727
260    -3.57898616e-14
261    0.000586353906
262    -0.000159112478
263    -0.00019323836
264    5.45353613e-14
265    2.33745697e-05
266    -7.53325272e-16
267    -3.43964605e-06
268    -1.22993795e-15
269    3.47137457e-05
270    7.4130511e-06
271    -1.29994463e-05
272    -6.40722296e-05
273    3.52308485e-06
274    -7.82987774e-06
275    -6.94493881e-07
276    -5.03792613e-16
Sym=X
Ene=0.004821
Spin=Alpha
Occup=1
1    -9.12885198e-10
2    6.33317623e-09
3    -6.50453976e-08
4    1.57671817e-07
5    -2.9230307e-06
6    -1.28478207e-05
7    7.38118054e-06
8    -2.61957683e-06
9    -5.8401432e-06
10    7.44222225e-16
11    1.57551971e-05
12    1.18404884e-05
13    2.49918537e-05
14    -9.26509443e-17
15    9.92734012e-05
16    2.14984182e-05
17    6.06433169e-05
18    1.31317795e-16
19    0.000893185807
20    -1.3923465e-05
21    0.000801397795
22    8.06988099e-15
23    0.00488888778
24    0.000382212757
25    0.000487615921
26    -6.50629427e-14
27    9.39126887e-07
28    2.05972698e-16
29    -4.38846143e-06
30    -5.01541244e-17
31    2.54293952e-06
32    5.52069316e-06
33    -1.60060368e-05
34    -0.000156686319
35    -0.000319931281
36    -1.46729679e-06
37    7.82223023e-07
38    1.17327968e-16
39    1.26054171e-06
40    1.22067366e-05
41    5.07201286e-05
42    0.000712746022
43    3.70398198e-07
44    3.6552529e-06
45    3.48476066e-16
46    0.000229346601
47    8.02196446e-05
48    0.000297490453
49    0.000382088816
50    -1.50674852e-05
51    -9.57364135e-05
52    2.93490726e-16
53    2.4832982e-08
54    1.88807424e-07
55    8.98037081e-07
56    2.79333601e-06
57    2.66698983e-06
58    -5.77299312e-05
59    -2.84325031e-06
60    5.58429799e-05
61    2.2410457e-05
62    3.10276356e-16
63    0.000316902022
64    0.000303185769
65    0.000127445826
66    3.34444114e-15
67    -0.000299486419
68    -0.000194426806
69    -0.000105908095
70    -2.36376516e-15
71    -0.0011539809
72    -0.000662396558
73    0.000165989295
74    1.15653782e-14
75    -0.00138459404
76    -0.000129259488
77    0.000394620357
78    3.71231223e-14
79    0.000135704467
80    4.05199951e-16
81    -2.0496033e-05
82    -6.03184109e-16
83    0.000138538315
84    1.85088478e-08
85    1.56792909e-07
86    6.56192159e-07
87    2.66560568e-06
88    2.50637898e-06
89    -1.09477939e-05
90    1.88227194e-05
91    -1.56137182e-05
92    -3.88329245e-06
93    -3.11315163e-17
94    1.76466781e-05
95    3.22607257e-05
96    -6.56956495e-06
97    2.61691795e-15
98    3.70412952e-05
99    3.77573781e-06
100    2.3437299e-05
101    -1.31901697e-15
102    -0.000207951509
103    -6.02440851e-06
104    1.22858179e-05
105    7.98544893e-15
106    -0.000725805846
107    -2.70119482e-05
108    0.000110715814
109    -2.54295802e-14
110    3.83343284e-06
111    -1.86574265e-16
112    -4.25565743e-06
113    5.53434814e-17
114    2.25312106e-05
115    1.3319845e-08
116    1.53657328e-07
117    3.47405256e-07
118    2.67276962e-06
119    -5.57623634e-06
120    -4.4904572e-05
121    1.03812085e-05
122    -3.14010339e-05
123    2.21412107e-05
124    9.33079405e-16
125    0.000226630933
126    -0.000231256439
127    0.000149423645
128    -1.48999567e-15
129    -0.000247579131
130    0.000134318378
131    -7.27792075e-05
132    4.15295908e-16
133    -0.00115590962
134    0.000821663985
135    0.000152251663
136    1.32523996e-14
137    -0.00385481401
138    0.000159038297
139    0.000601454161
140    -8.01012323e-14
141    -0.00012876916
142    -2.56620842e-16
143    1.4030596e-06
144    -7.10853088e-16
145    9.80527863e-05
146    6.76360147e-09
147    7.22563391e-08
148    2.07067861e-07
149    1.26808476e-06
150    -2.17445054e-06
151    -1.69566908e-05
152    1.63269667e-05
153    1.73607814e-05
154    -1.89268167e-06
155    2.28387048e-16
156    2.29415645e-05
157    -3.71551955e-05
158    -1.64924795e-05
159    -1.6868758e-15
160    3.49785324e-05
161    1.97849315e-05
162    5.54131571e-06
163    3.29675495e-15
164    -0.000183849561
165    -3.61002831e-05
166    2.6477963e-05
167    -7.05925054e-15
168    -0.0008974358
169    0.000110073685
170    7.32316915e-05
171    9.20637335e-15
172    5.75215971e-06
173    -1.48965154e-16
174    -5.55985712e-06
175    -3.50220262e-16
176    1.53396776e-05
177    0.00109722665
178    0.0083542886
179    0.0409340243
180    0.138945138
181    0.335941706
182    0.144035531
183    0.467502171
184    -0.000175842541
185    -0.000253884542
186    4.65401659e-16
187    0.00424248299
188    8.87466767e-05
189    0.000118738297
190    1.72537118e-16
191    -0.000220933115
192    -6.59135322e-05
193    -0.000136281053
194    4.00978813e-15
195    0.0024864961
196    -0.000101422696
197    -0.000903327115
198    -8.5390803e-15
199    0.00271455614
200    0.000168429784
201    -0.00075063334
202    9.31478997e-15
203    1.59148638e-05
204    -2.39096422e-16
205    1.91690136e-05
206    -3.91000456e-16
207    -2.3919191e-05
208    -1.47789287e-06
209    -1.12134226e-05
210    -5.52223482e-05
211    -0.000186346378
212    -0.00045996021
213    -0.000226177892
214    -0.00060691574
215    -6.65799594e-06
216    -2.06651807e-05
217    7.17503639e-16
218    3.52738556e-05
219    1.08328605e-05
220    5.94452002e-05
221    -3.5567688e-16
222    -2.36779446e-05
223    -5.5229642e-05
224    -7.15137776e-05
225    5.11927688e-15
226    -0.00052933812
227    -0.000347085313
228    -0.000144912674
229    -5.82572437e-15
230    -0.00110977242
231    -0.000638554139
232    0.000190967943
233    1.68007623e-14
234    1.16938745e-05
235    2.52048526e-16
236    -6.77582987e-06
237    1.36533355e-16
238    -2.1534851e-05
239    -1.30270838e-09
240    3.57937159e-08
241    -1.51390557e-07
242    7.83914898e-07
243    -9.43228499e-06
244    -4.40406701e-05
245    2.6448725e-05
246    3.11880171e-06
247    -1.82659587e-05
248    1.61923267e-15
249    8.69333494e-05
250    -7.61640188e-06
251    8.65537432e-05
252    -2.84922613e-15
253    -0.000154763189
254    0.000100162594
255    -9.76104774e-05
256    8.888076e-15
257    -7.10155678e-05
258    -6.52734324e-05
259    -0.000142438627
260    -2.41701305e-14
261    -4.31050527e-05
262    0.000527049829
263    0.000685735541
264    9.1304396e-14
265    -7.00338217e-06
266    2.21311995e-16
267    -5.11957059e-06
268    -2.16047069e-16
269    -3.89017722e-05
270    6.44540332e-06
271    -1.98843613e-06
272    -8.17448713e-05
273    1.90356529e-05
274    -2.92913311e-06
275    6.92474754e-06
276    -1.78743141e-17
Sym=X
Ene=0.008561
Spin=Alpha
Occup=1
1    8.96213035e-10
2    -6.47014069e-09
3    6.44520125e-08
4    -1.59810211e-07
5    2.92287402e-06
6    1.28913483e-05
7    -7.38980379e-06
8    2.63874565e-06
9    5.82469963e-06
10    -7.45528354e-16
11    -1.59163252e-05
12    -1.16697186e-05
13    -2.51376623e-05
14    9.06118764e-17
15    -9.92227129e-05
16    -2.15266439e-05
17    -6.06583397e-05
18    -1.3219205e-16
19    -0.000892263821
20    1.39544179e-05
21    -0.000800773448
22    -8.08321214e-15
23    -0.0048873004
24    -0.000382064903
25    -0.00048736662
26    6.50809708e-14
27    -8.22765082e-07
28    -2.06289658e-16
29    4.40982893e-06
30    5.06392865e-17
31    -2.56625295e-06
32    -5.63088201e-06
33    1.59050362e-05
34    0.000156589122
35    0.000319824865
36    1.40783356e-06
37    -8.00167248e-07
38    -1.18452724e-16
39    -1.26567174e-06
40    -1.22650515e-05
41    -5.06457568e-05
42    -0.00071227987
43    -3.655222e-07
44    -3.6841639e-06
45    -3.49289177e-16
46    -0.000229349213
47    -8.02144607e-05
48    -0.000297381289
49    -0.000381854862
50    1.50674798e-05
51    9.57369498e-05
52    -2.9298454e-16
53    -2.48390949e-08
54    -1.88893848e-07
55    -8.98157596e-07
56    -2.79486644e-06
57    -2.66084697e-06
58    5.77694092e-05
59    2.82937804e-06
60    -5.58414244e-05
61    -2.23968467e-05
62    -3.10752477e-16
63    -0.000317031768
64    -0.00030319828
65    -0.000127251725
66    -3.34786964e-15
67    0.000299490198
68    0.000194409284
69    0.000105910571
70    2.36580423e-15
71    0.00115420534
72    0.000662502812
73    -0.000166184785
74    -1.15899209e-14
75    0.00138482844
76    0.000129367094
77    -0.000394542759
78    -3.71500075e-14
79    -0.000135690637
80    -4.04703933e-16
81    2.05137722e-05
82    6.03981286e-16
83    -0.000138430885
84    -3.58400479e-09
85    -4.32673321e-08
86    -9.94763887e-08
87    -7.71206457e-07
88    2.18467341e-06
89    1.31796718e-05
90    -1.20902257e-05
91    1.56403509e-05
92    3.86201356e-06
93    3.027537e-17
94    -1.75859067e-05
95    -3.2285765e-05
96    6.58829032e-06
97    -2.61733084e-15
98    -3.70803812e-05
99    -3.77697851e-06
100    -2.34436879e-05
101    1.31621372e-15
102    0.000208034366
103    6.03492368e-06
104    -1.22875112e-05
105    -7.98568507e-15
106    0.000726143548
107    2.70768064e-05
108    -0.000110696728
109    2.54416037e-14
110    -3.82221613e-06
111    1.86830696e-16
112    4.25764663e-06
113    -5.53156758e-17
114    -2.25289317e-05