[Molden Format]
[Atoms] (Angs)
  C      1    6     -0.13173890     -1.79208980     -0.00000000
  H      2    1     -2.14962000     -1.30978739     -0.00000000
  H      3    1     -0.31599560     -2.86503115     -0.00000000
  H      4    1      0.14407746      2.04280963     -0.00000000
  C      5    6     -1.17258876      0.48030861     -0.00000000
  O      6    8     -2.25008207      1.06833796     -0.00000000
  C      7    6      1.31158357      0.28308717      0.00000000
  O      8    8      2.36361668      0.96389345      0.00000000
  N      9    7      0.07017030      1.03138997     -0.00000000
  N     10    7     -1.19586868     -0.94982644     -0.00000000
  C     11    6      1.19165158     -1.13169473      0.00000000
  H     12    1      2.09970506     -1.73445456      0.00000000
[GTO]
1    0
S    1    1.000000
   4.56324000E+03    1.96665000E-03 
S    1    1.000000
   6.82024000E+02    1.52306000E-02 
S    1    1.000000
   1.54973000E+02    7.61269000E-02 
S    1    1.000000
   4.44553000E+01    2.60801000E-01 
S    1    1.000000
   1.30290000E+01    6.16462000E-01 
S    1    1.000000
   1.82773000E+00    2.21006000E-01 
SP   3    1.000000
   2.09642000E+01    1.14660000E-01   4.02487000E-02 
   4.80331000E+00    9.19999000E-01   2.37594000E-01 
   1.45933000E+00   -3.03068000E-03   8.15854000E-01 
SP   1    1.000000
   4.83456000E-01    1.00000000E+00   1.00000000E+00 
SP   1    1.000000
   1.45585000E-01    1.00000000E+00   1.00000000E+00 
SP   1    1.000000
   4.38000000E-02    1.00000000E+00   1.00000000E+00 
SP   1    1.000000
   1.31927711E-02    1.00000000E+00   1.00000000E+00 
D    1    1.000000
   6.26000000E-01    1.00000000E+00 

2    0
S    3    1.000000
   3.38650000E+01    2.54938000E-02 
   5.09479000E+00    1.90373000E-01 
   1.15879000E+00    8.52161000E-01 
S    1    1.000000
   3.25840000E-01    1.00000000E+00 
S    1    1.000000
   1.02741000E-01    1.00000000E+00 
S    1    1.000000
   3.60000000E-02    1.00000000E+00 
P    1    1.000000
   7.50000000E-01    1.00000000E+00 

3    0
S    3    1.000000
   3.38650000E+01    2.54938000E-02 
   5.09479000E+00    1.90373000E-01 
   1.15879000E+00    8.52161000E-01 
S    1    1.000000
   3.25840000E-01    1.00000000E+00 
S    1    1.000000
   1.02741000E-01    1.00000000E+00 
S    1    1.000000
   3.60000000E-02    1.00000000E+00 
P    1    1.000000
   7.50000000E-01    1.00000000E+00 

4    0
S    3    1.000000
   3.38650000E+01    2.54938000E-02 
   5.09479000E+00    1.90373000E-01 
   1.15879000E+00    8.52161000E-01 
S    1    1.000000
   3.25840000E-01    1.00000000E+00 
S    1    1.000000
   1.02741000E-01    1.00000000E+00 
S    1    1.000000
   3.60000000E-02    1.00000000E+00 
P    1    1.000000
   7.50000000E-01    1.00000000E+00 

5    0
S    1    1.000000
   4.56324000E+03    1.96665000E-03 
S    1    1.000000
   6.82024000E+02    1.52306000E-02 
S    1    1.000000
   1.54973000E+02    7.61269000E-02 
S    1    1.000000
   4.44553000E+01    2.60801000E-01 
S    1    1.000000
   1.30290000E+01    6.16462000E-01 
S    1    1.000000
   1.82773000E+00    2.21006000E-01 
SP   3    1.000000
   2.09642000E+01    1.14660000E-01   4.02487000E-02 
   4.80331000E+00    9.19999000E-01   2.37594000E-01 
   1.45933000E+00   -3.03068000E-03   8.15854000E-01 
SP   1    1.000000
   4.83456000E-01    1.00000000E+00   1.00000000E+00 
SP   1    1.000000
   1.45585000E-01    1.00000000E+00   1.00000000E+00 
SP   1    1.000000
   4.38000000E-02    1.00000000E+00   1.00000000E+00 
SP   1    1.000000
   1.31927711E-02    1.00000000E+00   1.00000000E+00 
D    1    1.000000
   6.26000000E-01    1.00000000E+00 

6    0
S    1    1.000000
   8.58850000E+03    1.89515000E-03 
S    1    1.000000
   1.29723000E+03    1.43859000E-02 
S    1    1.000000
   2.99296000E+02    7.07320000E-02 
S    1    1.000000
   8.73771000E+01    2.40001000E-01 
S    1    1.000000
   2.56789000E+01    5.94797000E-01 
S    1    1.000000
   3.74004000E+00    2.80802000E-01 
SP   3    1.000000
   4.21175000E+01    1.13889000E-01   3.65114000E-02 
   9.62837000E+00    9.20811000E-01   2.37153000E-01 
   2.85332000E+00   -3.27447000E-03   8.19702000E-01 
SP   1    1.000000
   9.05661000E-01    1.00000000E+00   1.00000000E+00 
SP   1    1.000000
   2.55611000E-01    1.00000000E+00   1.00000000E+00 
SP   1    1.000000
   8.45000000E-02    1.00000000E+00   1.00000000E+00 
SP   1    1.000000
   2.54518072E-02    1.00000000E+00   1.00000000E+00 
D    1    1.000000
   1.29200000E+00    1.00000000E+00 

7    0
S    1    1.000000
   4.56324000E+03    1.96665000E-03 
S    1    1.000000
   6.82024000E+02    1.52306000E-02 
S    1    1.000000
   1.54973000E+02    7.61269000E-02 
S    1    1.000000
   4.44553000E+01    2.60801000E-01 
S    1    1.000000
   1.30290000E+01    6.16462000E-01 
S    1    1.000000
   1.82773000E+00    2.21006000E-01 
SP   3    1.000000
   2.09642000E+01    1.14660000E-01   4.02487000E-02 
   4.80331000E+00    9.19999000E-01   2.37594000E-01 
   1.45933000E+00   -3.03068000E-03   8.15854000E-01 
SP   1    1.000000
   4.83456000E-01    1.00000000E+00   1.00000000E+00 
SP   1    1.000000
   1.45585000E-01    1.00000000E+00   1.00000000E+00 
SP   1    1.000000
   4.38000000E-02    1.00000000E+00   1.00000000E+00 
SP   1    1.000000
   1.31927711E-02    1.00000000E+00   1.00000000E+00 
D    1    1.000000
   6.26000000E-01    1.00000000E+00 

8    0
S    1    1.000000
   8.58850000E+03    1.89515000E-03 
S    1    1.000000
   1.29723000E+03    1.43859000E-02 
S    1    1.000000
   2.99296000E+02    7.07320000E-02 
S    1    1.000000
   8.73771000E+01    2.40001000E-01 
S    1    1.000000
   2.56789000E+01    5.94797000E-01 
S    1    1.000000
   3.74004000E+00    2.80802000E-01 
SP   3    1.000000
   4.21175000E+01    1.13889000E-01   3.65114000E-02 
   9.62837000E+00    9.20811000E-01   2.37153000E-01 
   2.85332000E+00   -3.27447000E-03   8.19702000E-01 
SP   1    1.000000
   9.05661000E-01    1.00000000E+00   1.00000000E+00 
SP   1    1.000000
   2.55611000E-01    1.00000000E+00   1.00000000E+00 
SP   1    1.000000
   8.45000000E-02    1.00000000E+00   1.00000000E+00 
SP   1    1.000000
   2.54518072E-02    1.00000000E+00   1.00000000E+00 
D    1    1.000000
   1.29200000E+00    1.00000000E+00 

9    0
S    1    1.000000
   6.29348000E+03    1.96979000E-03 
S    1    1.000000
   9.49044000E+02    1.49613000E-02 
S    1    1.000000
   2.18776000E+02    7.35006000E-02 
S    1    1.000000
   6.36916000E+01    2.48937000E-01 
S    1    1.000000
   1.88282000E+01    6.02460000E-01 
S    1    1.000000
   2.72023000E+00    2.56202000E-01 
SP   3    1.000000
   3.06331000E+01    1.11906000E-01   3.83119000E-02 
   7.02614000E+00    9.21666000E-01   2.37403000E-01 
   2.11205000E+00   -2.56919000E-03   8.17592000E-01 
SP   1    1.000000
   6.84009000E-01    1.00000000E+00   1.00000000E+00 
SP   1    1.000000
   2.00878000E-01    1.00000000E+00   1.00000000E+00 
SP   1    1.000000
   6.39000000E-02    1.00000000E+00   1.00000000E+00 
SP   1    1.000000
   1.92469880E-02    1.00000000E+00   1.00000000E+00 
D    1    1.000000
   9.13000000E-01    1.00000000E+00 

10    0
S    1    1.000000
   6.29348000E+03    1.96979000E-03 
S    1    1.000000
   9.49044000E+02    1.49613000E-02 
S    1    1.000000
   2.18776000E+02    7.35006000E-02 
S    1    1.000000
   6.36916000E+01    2.48937000E-01 
S    1    1.000000
   1.88282000E+01    6.02460000E-01 
S    1    1.000000
   2.72023000E+00    2.56202000E-01 
SP   3    1.000000
   3.06331000E+01    1.11906000E-01   3.83119000E-02 
   7.02614000E+00    9.21666000E-01   2.37403000E-01 
   2.11205000E+00   -2.56919000E-03   8.17592000E-01 
SP   1    1.000000
   6.84009000E-01    1.00000000E+00   1.00000000E+00 
SP   1    1.000000
   2.00878000E-01    1.00000000E+00   1.00000000E+00 
SP   1    1.000000
   6.39000000E-02    1.00000000E+00   1.00000000E+00 
SP   1    1.000000
   1.92469880E-02    1.00000000E+00   1.00000000E+00 
D    1    1.000000
   9.13000000E-01    1.00000000E+00 

11    0
S    1    1.000000
   4.56324000E+03    1.96665000E-03 
S    1    1.000000
   6.82024000E+02    1.52306000E-02 
S    1    1.000000
   1.54973000E+02    7.61269000E-02 
S    1    1.000000
   4.44553000E+01    2.60801000E-01 
S    1    1.000000
   1.30290000E+01    6.16462000E-01 
S    1    1.000000
   1.82773000E+00    2.21006000E-01 
SP   3    1.000000
   2.09642000E+01    1.14660000E-01   4.02487000E-02 
   4.80331000E+00    9.19999000E-01   2.37594000E-01 
   1.45933000E+00   -3.03068000E-03   8.15854000E-01 
SP   1    1.000000
   4.83456000E-01    1.00000000E+00   1.00000000E+00 
SP   1    1.000000
   1.45585000E-01    1.00000000E+00   1.00000000E+00 
SP   1    1.000000
   4.38000000E-02    1.00000000E+00   1.00000000E+00 
SP   1    1.000000
   1.31927711E-02    1.00000000E+00   1.00000000E+00 
D    1    1.000000
   6.26000000E-01    1.00000000E+00 

12    0
S    3    1.000000
   3.38650000E+01    2.54938000E-02 
   5.09479000E+00    1.90373000E-01 
   1.15879000E+00    8.52161000E-01 
S    1    1.000000
   3.25840000E-01    1.00000000E+00 
S    1    1.000000
   1.02741000E-01    1.00000000E+00 
S    1    1.000000
   3.60000000E-02    1.00000000E+00 
P    1    1.000000
   7.50000000E-01    1.00000000E+00 

[MO]
Sym=X
Ene=0.953607
Spin=Alpha
Occup=1
1    8.58918482e-10
2    -6.77616415e-09
3    6.31238133e-08
4    -1.64586047e-07
5    2.92246448e-06
6    1.29884909e-05
7    -7.40894161e-06
8    2.68158682e-06
9    5.79010554e-06
10    -7.4848363e-16
11    -1.6276209e-05
12    -1.12873309e-05
13    -2.54636925e-05
14    8.60375798e-17
15    -9.91131493e-05
16    -2.15903972e-05
17    -6.06939653e-05
18    -1.34108768e-16
19    -0.000890069882
20    1.40370515e-05
21    -0.000799353648
22    -8.11324088e-15
23    -0.00488374873
24    -0.000381725981
25    -0.000486810352
26    6.51235589e-14
27    -5.62086566e-07
28    -2.06987219e-16
29    4.45762604e-06
30    5.1712942e-17
31    -2.61847857e-06
32    -5.87753668e-06
33    1.56802074e-05
34    0.00015637382
35    0.000319586987
36    1.27472759e-06
37    -8.39938172e-07
38    -1.20947173e-16
39    -1.27722501e-06
40    -1.23954384e-05
41    -5.04816143e-05
42    -0.000711228135
43    -3.54544657e-07
44    -3.74887812e-06
45    -3.51146692e-16
46    -0.000229354744
47    -8.02032925e-05
48    -0.000297134339
49    -0.000381330558
50    1.50667664e-05
51    9.57381267e-05
52    -2.91796719e-16
53    -2.48523591e-08
54    -1.89083077e-07
55    -8.98411229e-07
56    -2.79819031e-06
57    -2.64664136e-06
58    5.78625683e-05
59    2.79833149e-06
60    -5.58369404e-05
61    -2.23668733e-05
62    -3.11684474e-16
63    -0.000317337585
64    -0.000303208516
65    -0.000126826677
66    -3.35545639e-15
67    0.00029952865
68    0.000194347962
69    0.000105930481
70    2.37075297e-15
71    0.00115475608
72    0.000662609154
73    -0.000166565327
74    -1.16445307e-14
75    0.00138528388
76    0.000129600356
77    -0.000394389326
78    -3.72112397e-14
79    -0.000135651026
80    -4.03560806e-16
81    2.05565529e-05
82    6.05764929e-16
83    -0.000138195681
84    -6.89810671e-09
85    -6.84983124e-08
86    -2.2304884e-07
87    -1.19230179e-06
88    1.14767005e-06
89    1.27038051e-05
90    -1.3599887e-05
91    1.56402732e-05
92    3.84629603e-06
93    2.84250235e-17
94    -1.76244081e-05
95    -3.23131784e-05
96    6.6152789e-06
97    -2.61812534e-15
98    -3.71472949e-05
99    -3.79622307e-06
100    -2.34502639e-05
101    1.31024852e-15
102    0.000208093776
103    6.0494373e-06
104    -1.22838897e-05
105    -7.9864163e-15
106    0.000726572284
107    2.71610846e-05
108    -0.000110630617
109    2.54693654e-14
110    -3.80053012e-06
111    1.87386518e-16
112    4.26344174e-06
113    -5.52165761e-17
114    -2.25214555e-05
115    -1.33189718e-08
116    -1.53671928e-07
117    -3.47324606e-07
118    -2.67309747e-06
119    5.58076348e-06
120    4.49257517e-05
121    -1.03936299e-05
122    3.13916082e-05
123    -2.21496569e-05
124    -9.29798247e-16
125    -0.000226652166
126    0.000231291568
127    -0.000149378406
128    1.49914057e-15
129    0.000247054791
130    -0.000134307826
131    7.27152603e-05
132    -4.03179944e-16
133    0.00115507677
134    -0.000820925574
135    -0.000152242217
136    -1.32835504e-14
137    0.00385061541
138    -0.000158525965
139    -0.000600981322
140    8.02049725e-14
141    0.000128767107
142    2.58929229e-16
143    -1.3899489e-06
144    7.13502237e-16
145    -9.80448778e-05
146    -6.46404183e-09
147    -6.99861356e-08
148    -1.95874735e-07
149    -1.23022637e-06
150    2.27031017e-06
151    1.70090172e-05
152    -1.61966949e-05
153    -1.73622701e-05
154    1.89121285e-06
155    -2.2513244e-16
156    -2.29573412e-05
157    3.7161577e-05
158    1.64990274e-05
159    1.69647895e-15
160    -3.49163731e-05
161    -1.98198847e-05
162    -5.56392365e-06
163    -3.29498604e-15
164    0.000184088933
165    3.59620363e-05
166    -2.65124307e-05
167    7.08659045e-15
168    0.000896850094
169    -0.000110038239
170    -7.32754051e-05
171    -9.22489503e-15
172    -5.75310195e-06
173    1.48648083e-16
174    5.55915223e-06
175    3.49721958e-16
176    -1.53391179e-05
177    -0.0010972276
178    -0.0083542959
179    -0.0409340597
180    -0.138945259
181    -0.335941987
182    -0.144035606
183    -0.467502611
184    0.000175820029
185    0.000253866994
186    -4.65768977e-16
187    -0.00424256126
188    -8.86685267e-05
189    -0.000118687936
190    -1.6821271e-16
191    0.000220976476
192    6.59578781e-05
193    0.000136110385
194    -4.02050453e-15
195    -0.00248553709
196    0.000101272434
197    0.00090248966
198    8.5764045e-15
199    -0.00271280293
200    -0.000167843536
201    0.00074985652
202    -9.26715403e-15
203    -1.59503212e-05
204    2.39713415e-16
205    -1.91582059e-05
206    3.92679926e-16
207    2.3895406e-05
208    -3.37633833e-07
209    -2.60993857e-06
210    -1.25087965e-05
211    -4.35548091e-05
212    -9.59105362e-05
213    -1.26677765e-05
214    -0.000166384058
215    5.99690186e-06
216    2.04904786e-05
217    -7.24185518e-16
218    -4.28910221e-05
219    -1.04173326e-05
220    -5.93907113e-05
221    3.51598509e-16
222    2.51047108e-05
223    5.50279051e-05
224    7.15381517e-05
225    -5.14347431e-15
226    0.000525146914
227    0.000345905153
228    0.000144340314
229    5.85652626e-15
230    0.00110623021
231    0.000637610674
232    -0.00019116566
233    -1.67659109e-14
234    -1.1747476e-05
235    -2.52424191e-16
236    6.40476444e-06
237    -1.37517005e-16
238    2.14364855e-05
239    1.30489802e-09
240    -3.58402299e-08
241    1.51614135e-07
242    -7.84946427e-07
243    9.44555088e-06
244    4.41021414e-05
245    -2.64858075e-05
246    -3.1448178e-06
247    1.82558875e-05
248    -1.62052927e-15
249    -8.70540912e-05
250    7.73362562e-06
251    -8.64962584e-05
252    2.85433746e-15
253    0.000155076249
254    -0.000100399046
255    9.77547969e-05
256    -8.89808472e-15
257    6.88546999e-05
258    6.54723898e-05
259    0.000141981829
260    2.42292402e-14
261    4.21334893e-05
262    -0.000526787705
263    -0.000685417642
264    -9.1394786e-14
265    6.96476446e-06
266    -2.20059886e-16
267    5.12529423e-06
268    2.18090886e-16
269    3.88443555e-05
270    -6.45766824e-06
271    2.01014649e-06
272    8.18512869e-05
273    -1.90419356e-05
274    2.94205635e-06
275    -6.92359479e-06
276    1.87111868e-17
Sym=X
Ene=0.954757
Spin=Alpha
Occup=1
1    3.26032819e-08
2    2.67683672e-07
3    1.16075221e-06
4    4.17827448e-06
5    3.30618188e-07
6    -8.504531e-05
7    1.6797163e-05
8    -3.74600722e-05
9    3.02331976e-05
10    2.56960316e-15
11    0.000314948387
12    -0.000334332108
13    0.000285149776
14    3.98540416e-15
15    -9.74977877e-05
16    5.55592294e-05
17    2.99626584e-05
18    1.66758927e-15
19    -0.00189753662
20    -6.8930659e-05
21    -0.00124140927
22    2.62666085e-14
23    -0.0031091124
24    -0.000295415118
25    -0.000486177222
26    -3.66808347e-14
27    -0.000227867952
28    6.08509646e-16
29    -4.17795857e-05
30    -9.36083618e-16
31    4.56108086e-05
32    0.000215669131
33    0.000196732145
34    0.000188550212
35    0.000209073317
36    0.000116378858
37    3.4813252e-05
38    2.17703116e-15
39    1.00872495e-05
40    0.000113938091
41    -0.000144584021
42    -0.000921355853
43    -9.58869205e-06
44    5.65548245e-05
45    1.61268265e-15
46    4.76643669e-06
47    -9.95836876e-06
48    -0.000215849154
49    -0.000458137441
50    5.10273286e-07
51    -9.57691677e-07
52    -1.02830496e-15
53    1.16086527e-08
54    1.65673827e-07
55    2.22096729e-07
56    2.9128306e-06
57    -1.23984022e-05
58    -8.10869387e-05
59    2.71717875e-05
60    -3.88450134e-06
61    -2.6259628e-05
62    8.26310192e-16
63    0.000266093391
64    1.02025548e-05
65    -0.000372462238
66    6.61661959e-15
67    -3.09663014e-05
68    5.09629593e-05
69    -1.56168125e-05
70    -4.27254115e-15
71    -0.000482992226
72    -0.000109056005
73    0.00033788577
74    4.78772418e-14
75    -0.000407679882
76    -0.000205524546
77    -0.000138561487
78    5.32939665e-14
79    -3.40461522e-05
80    -9.8972533e-16
81    -3.71540806e-05
82    -1.55632453e-15
83    -0.000206131596
84    6.63376088e-09
85    6.82186214e-08
86    2.09411157e-07
87    1.19122299e-06
88    -1.62104089e-06
89    -1.4706371e-05
90    1.46830031e-05
91    -4.63143338e-06
92    1.62536317e-05
93    1.61765649e-15
94    1.99501991e-05
95    2.6236425e-05
96    -2.47568223e-05
97    7.05782194e-16
98    5.97640316e-05
99    1.52584466e-05
100    6.38801882e-06
101    5.24464086e-15
102    -6.3897061e-05
103    -1.35083041e-05
104    -2.20760666e-06
105    5.55676044e-16
106    -0.00041303787
107    -8.06824691e-05
108    -5.59856121e-05
109    -2.41112015e-14
110    -1.92269169e-05
111    -4.88002093e-16
112    -4.95359635e-06
113    -8.36224907e-17
114    -6.36779295e-06
115    -5.47356392e-10
116    8.69266395e-09
117    -4.951912e-08
118    1.96013664e-07
119    -2.74709555e-06
120    -1.28348086e-05
121    7.52611043e-06
122    5.74268464e-06
123    5.09029437e-06
124    -1.97110037e-15
125    1.28294631e-05
126    -2.10413444e-05
127    -2.73876131e-05
128    -5.51587122e-15
129    0.000317590699
130    -5.07638354e-06
131    3.99250233e-05
132    -7.31485484e-15
133    0.000491750255
134    -0.000438938844
135    -3.52407982e-06
136    1.89368816e-14
137    0.0025365476
138    -0.000309064911
139    -0.000287831344
140    -6.25349136e-14
141    1.41610726e-06
142    -1.39382502e-15
143    -7.94804285e-06
144    -1.59423028e-15
145    -4.8025859e-06
146    -4.56772394e-10
147    1.72413904e-09
148    -2.89873218e-08
149    4.33814918e-08
150    -1.20344931e-06
151    -4.6401683e-06
152    2.77513672e-06
153    6.2856592e-07
154    7.15773602e-07
155    -1.95535654e-15
156    1.05419629e-05
157    -3.74695031e-06
158    -3.86534066e-06
159    -5.79319324e-15
160    -3.83927071e-05
161    2.14879683e-05
162    1.3784486e-05
163    -1.03365279e-15
164    -0.000146881019
165    8.36291365e-05
166    2.12801049e-05
167    -1.65235482e-14
168    0.000340146795
169    -1.92390413e-05
170    2.67170811e-05
171    1.1194244e-14
172    5.28880957e-07
173    1.90378462e-16
174    4.77754687e-07
175    2.98057452e-16
176    -3.64226309e-07
177    -3.59196756e-07
178    -2.70092956e-06
179    -1.34748887e-05
180    -4.47991301e-05
181    -0.000116666887
182    -7.75386097e-05
183    -0.000132238457
184    1.38564192e-05
185    1.07986294e-05
186    2.15864673e-16
187    4.39400776e-05
188    -4.76399069e-05
189    -3.05027679e-05
190    -2.62509748e-15
191    -2.59569043e-05
192    -2.69406349e-05
193    0.000103201978
194    6.4626288e-15
195    -0.0005812786
196    9.02326178e-05
197    0.000507961224
198    -2.26180886e-14
199    -0.00107266205
200    -0.00033957124
201    0.000469752523
202    -2.89359908e-14
203    2.1395174e-05
204    -3.72123489e-16
205    -6.57081744e-06
206    -1.00926254e-15
207    1.46278706e-05
208    0.00109701384
209    0.00835262786
210    0.0409258656
211    0.138915496
212    0.335879287
213    0.144319907
214    0.467258801
215    0.000399500162
216    0.000105462971
217    4.02826888e-15
218    0.00460289455
219    -0.000251162608
220    -3.25945021e-05
221    2.42852854e-15
222    -0.000862430966
223    0.000121880033
224    -1.50727926e-05
225    1.46208463e-14
226    0.00253429558
227    0.000712474448
228    0.000345594596
229    -1.87519757e-14
230    0.00212952553
231    0.000573036899
232    0.000114627994
233    -2.10156334e-14
234    3.23174963e-05
235    2.22499448e-16
236    0.000224189676
237    5.96945152e-16
238    5.92699964e-05
239    -1.32165773e-09
240    2.80825813e-08
241    -1.34965032e-07
242    6.22759441e-07
243    -8.00890725e-06
244    -3.71144406e-05
245    2.23883238e-05
246    1.57234686e-05
247    6.0960823e-06
248    7.8523655e-16
249    7.2883543e-05
250    -7.0877311e-05
251    -3.4766443e-05
252    -3.08224608e-15
253    -0.00018771917
254    0.000142184957
255    -8.66022283e-05
256    6.05762916e-15
257    0.00132177249
258    -0.000123881666
259    0.000277664448
260    -3.57893862e-14
261    0.000586354739
262    -0.000159122741
263    -0.000193251693
264    5.45335828e-14
265    2.33747029e-05
266    -7.53329688e-16
267    -3.43954669e-06
268    -1.22993389e-15
269    3.4714504e-05
270    7.41292478e-06
271    -1.29994126e-05
272    -6.40706381e-05
273    3.52275305e-06
274    -7.8298191e-06
275    -6.94629153e-07
276    -5.03792321e-16
Sym=X
Ene=0.023199
Spin=Alpha
Occup=1
1    8.65893107e-10
2    -6.71882591e-09
3    6.33719432e-08
4    -1.63690732e-07
5    2.92252105e-06
6    1.29702268e-05
7    -7.40531471e-06
8    2.67357079e-06
9    5.79657028e-06
10    -7.47939015e-16
11    -1.62086404e-05
12    -1.13589509e-05
13    -2.54025875e-05
14    8.68814945e-17
15    -9.91346869e-05
16    -2.15785348e-05
17    -6.06881286e-05
18    -1.33764799e-16
19    -0.000890480632
20    1.4022733e-05
21    -0.00079962271
22    -8.1075694e-15
23    -0.00488441417
24    -0.000381789582
25    -0.000486913716
26    6.51157355e-14
27    -6.1088432e-07
28    -2.06859842e-16
29    4.44868892e-06
30    5.15165847e-17
31    -2.60874279e-06
32    -5.8313312e-06
33    1.57222517e-05
34    0.000156413969
35    0.000319632375
36    1.29965304e-06
37    -8.32514534e-07
38    -1.20487827e-16
39    -1.27506344e-06
40    -1.23711021e-05
41    -5.05130195e-05
42    -0.000711427807
43    -3.56601059e-07
44    -3.7367845e-06
45    -3.50804013e-16
46    -0.000229353679
47    -8.02054555e-05
48    -0.000297180747
49    -0.000381428308
50    1.50668906e-05
51    9.57379193e-05
52    -2.92017608e-16
53    -2.48499166e-08
54    -1.89047986e-07
55    -8.98365463e-07
56    -2.79757609e-06
57    -2.64935275e-06
58    5.78446631e-05
59    2.80416986e-06
60    -5.58378722e-05
61    -2.23724438e-05
62    -3.11520244e-16
63    -0.000317278874
64    -0.000303208064
65    -0.000126905471
66    -3.35406495e-15
67    0.000299518986
68    0.000194360276
69    0.000105926126
70    2.36981627e-15
71    0.00115464269
72    0.000662594214
73    -0.000166498143
74    -1.16342185e-14
75    0.0013851995
76    0.000129556245
77    -0.000394418927
78    -3.71998218e-14
79    -0.000135659189
80    -4.03770127e-16
81    2.05482742e-05
82    6.05433869e-16
83    -0.000138239256
84    -3.14072244e-09
85    -3.99117303e-08
86    -8.29066556e-08
87    -7.15259868e-07
88    2.32738704e-06
89    1.32602972e-05
90    -1.19009425e-05
91    1.56453763e-05
92    3.84650962e-06
93    2.87604127e-17
94    -1.760225e-05
95    -3.23104555e-05
96    6.61151109e-06
97    -2.61798497e-15
98    -3.71368641e-05
99    -3.79148589e-06
100    -2.34496461e-05
101    1.31134303e-15
102    0.000208091217
103    6.04737626e-06
104    -1.22848113e-05
105    -7.98632559e-15
106    0.000726506836
107    2.71482494e-05
108    -0.000110644946
109    2.54641739e-14
110    -3.80429303e-06
111    1.87283253e-16
112    4.26224673e-06
113    -5.5238122e-17
114    -2.25230618e-05
115    -1.33191205e-08
116    -1.53670179e-07
117    -3.47336822e-07
118    -2.67305805e-06
119    5.58012018e-06
120    4.49226603e-05
121    -1.03919401e-05
122    3.13928675e-05
123    -2.21485456e-05
124    -9.30211288e-16
125    -0.000226648508
126    0.00023128784
127    -0.00014938371
128    1.49796647e-15
129    0.000247121969
130    -0.000134308551
131    7.27242112e-05
132    -4.04735019e-16
133    0.00115517472
134    -0.000821020559
135    -0.000152244512
136    -1.32794159e-14
137    0.00385115755
138    -0.000158592316
139    -0.000601042631
140    8.01917474e-14
141    0.000128767873
142    2.58632253e-16
143    -1.39184974e-06
144    7.13165108e-16
145    -9.80456637e-05
146    -4.69445478e-09
147    -5.6523577e-08
148    -1.29872681e-07
149    -1.00557576e-06
150    2.82601757e-06
151    1.72725632e-05
152    -1.53974197e-05
153    -1.73647717e-05
154    1.88967294e-06
155    -2.25543412e-16
156    -2.29458013e-05
157    3.71619819e-05
158    1.64989996e-05
159    1.69524745e-15
160    -3.49265166e-05
161    -1.98154932e-05
162    -5.56116371e-06
163    -3.29518877e-15
164    0.000184061126
165    3.59796577e-05
166    -2.65078954e-05
167    7.08305693e-15
168    0.000896925613
169    -0.000110043138
170    -7.32701177e-05
171    -9.22250159e-15
172    -5.75324003e-06
173    1.48687513e-16
174    5.55965559e-06
175    3.49783386e-16
176    -1.53392908e-05
177    -0.00109722764
178    -0.00835429625
179    -0.0409340614
180    -0.138945265
181    -0.335942002
182    -0.144035619
183    -0.467502626
184    0.000175823024
185    0.000253869293
186    -4.65725183e-16
187    -0.00424255157
188    -8.86788452e-05
189    -0.00011869447
190    -1.68779817e-16
191    0.000220971068
192    6.59519962e-05
193    0.000136132388
194    -4.01912589e-15
195    -0.00248566154
196    0.000101291285
197    0.000902599242
198    8.57150741e-15
199    -0.00271304188
200    -0.000167912714
201    0.000749957172
202    -9.27346578e-15
203    -1.59457811e-05
204    2.39634148e-16
205    -1.91596323e-05
206    3.92466962e-16
207    2.38986906e-05
208    -1.02764897e-07
209    -8.21653928e-07
210    -3.74663349e-06
211    -1.38132167e-05
212    -2.3999339e-05
213    1.82307626e-05
214    -6.63445952e-05
215    6.08245256e-06
216    2.05129952e-05
217    -7.23331934e-16
218    -4.19053638e-05
219    -1.04711422e-05
220    -5.93974851e-05
221    3.52096063e-16
222    2.49200213e-05
223    5.50540481e-05
224    7.15347211e-05
225    -5.14034878e-15
226    0.000525691058
227    0.000346057528
228    0.000144414145
229    5.85241104e-15
230    0.00110667948
231    0.00063773511
232    -0.000191143973
233    -1.67704116e-14
234    -1.174059e-05
235    -2.5237773e-16
236    6.452749e-06
237    -1.37388202e-16
238    2.14490718e-05
239    1.30461841e-09
240    -3.58341932e-08
241    1.51585378e-07
242    -7.84812716e-07
243    9.44383631e-06
244    4.4094182e-05
245    -2.64810069e-05
246    -3.14145827e-06
247    1.82571738e-05
248    -1.62036045e-15
249    -8.70384769e-05
250    7.71845177e-06
251    -8.65035811e-05
252    2.85368163e-15
253    0.000155036991
254    -0.000100369107
255    9.77365441e-05
256    -8.8967888e-15
257    6.91407432e-05
258    6.54466868e-05
259    0.00014204178
260    2.42215302e-14
261    4.22593449e-05
262    -0.000526821603
263    -0.00068545961
264    -9.13832524e-14
265    6.96985964e-06
266    -2.20218747e-16
267    5.1245673e-06
268    2.17831291e-16
269    3.88517314e-05
270    -6.4560658e-06
271    2.00750676e-06
272    8.183756e-05
273    -1.90429857e-05
274    2.94034007e-06
275    -6.92373542e-06
276    1.86048565e-17
Sym=X
Ene=0.016736
Spin=Alpha
Occup=1
1    -9.61148184e-10
2    5.93659982e-09
3    -6.6762886e-08
4    1.5148026e-07
5    -2.92345803e-06
6    -1.27216151e-05
7    7.35616476e-06
8    -2.56410229e-06
9    -5.88486941e-06
10    7.40434418e-16
11    1.52881826e-05
12    1.23357462e-05
13    2.45692486e-05
14    -9.85191378e-17
15    9.94199055e-05
16    2.14161848e-05
17    6.06008498e-05
18    1.28894341e-16
19    0.000896007593
20    -1.38230907e-05
21    0.000803245154
22    8.03078064e-15
23    0.00489347475
24    0.000382650127
25    0.000488331668
26    -6.50085286e-14
27    1.27664194e-06
28    2.05081117e-16
29    -4.32659733e-06
30    -4.87821072e-17
31    2.47548676e-06
32    5.20114939e-06
33    -1.62970892e-05
34    -0.00015696426
35    -0.000320242081
36    -1.63968446e-06
37    7.30763714e-07
38    1.14127458e-16
39    1.24559183e-06
40    1.20381554e-05
41    5.09357443e-05
42    0.000714116724
43    3.84609826e-07
44    3.57153396e-06
45    3.46096296e-16
46    0.000229338581
47    8.02342326e-05
48    0.000297809775
49    0.000382764778
50    -1.50682339e-05
51    -9.5734654e-05
52    2.95014595e-16
53    2.48158527e-08
54    1.88562722e-07
55    8.97711286e-07
56    2.78904511e-06
57    2.68554308e-06
58    -5.76077294e-05
59    -2.8835585e-06
60    5.5848889e-05
61    2.24490899e-05
62    3.09095669e-16
63    0.000316500727
64    0.000303175649
65    0.000127993697
66    3.33472008e-15
67    -0.000299428922
68    -0.000194506403
69    -0.000105881123
70    -2.3573547e-15
71    -0.00115322608
72    -0.000662261484
73    0.000165506228
74    1.14942024e-14
75    -0.00138399507
76    -0.000128954161
77    0.000394824229
78    3.70440491e-14
79    0.00013575747
80    4.06654607e-16
81    -2.04398023e-05
82    -6.00884812e-16
83    0.000138841171
84    5.37738626e-09
85    5.68742752e-08
86    1.66445464e-07
87    9.98162918e-07
88    -1.61381755e-06
89    -1.28810954e-05
90    1.28765761e-05
91    -1.56280954e-05
92    -3.89593994e-06
93    -3.34884283e-17
94    1.75545778e-05
95    3.22318639e-05
96    -6.53823145e-06
97    2.6159008e-15
98    3.6960948e-05
99    3.74801666e-06
100    2.34303712e-05
101    -1.32668123e-15
102    -0.000207894786
103    -6.00727319e-06
104    1.22905745e-05
105    7.98470315e-15
106    -0.000725270577
107    -2.6907643e-05
108    0.000110806523
109    -2.53936873e-14
110    3.86065961e-06
111    -1.85855039e-16
112    -4.24783687e-06
113    5.54798455e-17