                  Welcome to Q-Chem
     A Quantum Leap Into The Future Of Chemistry


 Q-Chem 5.2 (devel), Q-Chem, Inc., Pleasanton, CA (2019)

 Yihan Shao,  Zhengting Gan,  E. Epifanovsky,  A. T. B. Gilbert,  M. Wormit,  
 J. Kussmann,  A. W. Lange,  A. Behn,  Jia Deng,  Xintian Feng,  D. Ghosh,  
 M. Goldey,  P. R. Horn,  L. D. Jacobson,  I. Kaliman,  T. Kus,  A. Landau,  
 Jie Liu,  E. I. Proynov,  R. M. Richard,  R. P. Steele,  E. J. Sundstrom,  
 H. L. Woodcock III,  P. M. Zimmerman,  D. Zuev,  B. Albrecht,  E. Alguire,  
 S. A. Baeppler,  D. Barton,  Z. Benda,  Y. A. Bernard,  E. J. Berquist,  
 K. B. Bravaya,  H. Burton,  D. Casanova,  Chun-Min Chang,  Yunqing Chen,  
 A. Chien,  K. D. Closser,  M. P. Coons,  S. Coriani,  S. Dasgupta,  
 A. L. Dempwolff,  M. Diedenhofen,  Hainam Do,  R. G. Edgar,  Po-Tung Fang,  
 S. Faraji,  S. Fatehi,  Qingguo Feng,  K. D. Fenk,  J. Fosso-Tande,  
 J. Gayvert,  Qinghui Ge,  A. Ghysels,  G. Gidofalvi,  J. Gomes,  
 J. Gonthier,  A. Gunina,  D. Hait,  M. W. D. Hanson-Heine,  
 P. H. P. Harbach,  A. W. Hauser,  M. F. Herbst,  J. E. Herr,  
 E. G. Hohenstein,  Z. C. Holden,  Kerwin Hui,  B. C. Huynh,  T.-C. Jagau,  
 Hyunjun Ji,  B. Kaduk,  K. Khistyaev,  Jaehoon Kim,  P. Klunzinger,  K. Koh,  
 D. Kosenkov,  L. Koulias,  T. Kowalczyk,  C. M. Krauter,  A. Kunitsa,  
 Ka Un Lao,  A. Laurent,  K. V. Lawler,  Joonho Lee,  D. Lefrancois,  
 S. Lehtola,  D. S. Levine,  Yi-Pei Li,  You-Sheng Lin,  Fenglai Liu,  
 E. Livshits,  A. Luenser,  P. Manohar,  E. Mansoor,  S. F. Manzer,  
 Shan-Ping Mao,  Yuezhi Mao,  N. Mardirossian,  A. V. Marenich,  
 T. Markovich,  L. A. Martinez-Martinez,  S. A. Maurer,  N. J. Mayhall,  
 S. C. McKenzie,  J.-M. Mewes,  P. Morgante,  A. F. Morrison,  
 J. W. Mullinax,  K. Nanda,  T. S. Nguyen-Beck,  R. Olivares-Amaya,  
 J. A. Parkhill,  Zheng Pei,  T. M. Perrine,  F. Plasser,  P. Pokhilko,  
 S. Prager,  A. Prociuk,  E. Ramos,  D. R. Rehn,  F. Rob,  M. Scheurer,  
 M. Schneider,  N. Sergueev,  S. M. Sharada,  S. Sharma,  D. W. Small,  
 T. Stauch,  T. Stein,  Yu-Chuan Su,  A. J. W. Thom,  A. Tkatchenko,  
 T. Tsuchimochi,  N. M. Tubman,  L. Vogt,  M. L. Vidal,  O. Vydrov,  
 M. A. Watson,  J. Wenzel,  M. de Wergifosse,  T. A. Wesolowski,  A. White,  
 J. Witte,  A. Yamada,  Jun Yang,  K. Yao,  S. Yeganeh,  S. R. Yost,  
 Zhi-Qiang You,  A. Zech,  Igor Ying Zhang,  Xing Zhang,  Yan Zhao,  
 Ying Zhu,  B. R. Brooks,  G. K. L. Chan,  C. J. Cramer,  M. S. Gordon,  
 W. J. Hehre,  A. Klamt,  M. W. Schmidt,  C. D. Sherrill,  D. G. Truhlar,  
 A. Aspuru-Guzik,  R. Baer,  A. T. Bell,  N. A. Besley,  Jeng-Da Chai,  
 A. E. DePrince, III,  R. A. DiStasio Jr.,  A. Dreuw,  B. D. Dunietz,  
 T. R. Furlani,  Chao-Ping Hsu,  Yousung Jung,  Jing Kong,  D. S. Lambrecht,  
 WanZhen Liang,  C. Ochsenfeld,  V. A. Rassolov,  L. V. Slipchenko,  
 J. E. Subotnik,  T. Van Voorhis,  J. M. Herbert,  A. I. Krylov,  
 P. M. W. Gill,  M. Head-Gordon

 Contributors to earlier versions of Q-Chem not listed above: 
 R. D. Adamson,  B. Austin,  J. Baker,  G. J. O. Beran,  K. Brandhorst,  
 S. T. Brown,  E. F. C. Byrd,  A. K. Chakraborty,  C.-L. Cheng,  
 Siu Hung Chien,  D. M. Chipman,  D. L. Crittenden,  H. Dachsel,  
 R. J. Doerksen,  A. D. Dutoi,  L. Fusti-Molnar,  W. A. Goddard III,  
 A. Golubeva-Zadorozhnaya,  S. R. Gwaltney,  G. Hawkins,  A. Heyden,  
 S. Hirata,  G. Kedziora,  F. J. Keil,  C. Kelley,  Jihan Kim,  R. A. King,  
 R. Z. Khaliullin,  P. P. Korambath,  W. Kurlancheek,  A. M. Lee,  M. S. Lee,  
 S. V. Levchenko,  Ching Yeh Lin,  D. Liotard,  R. C. Lochan,  I. Lotan,  
 P. E. Maslen,  N. Nair,  D. P. O'Neill,  D. Neuhauser,  E. Neuscamman,  
 C. M. Oana,  R. Olson,  B. Peters,  R. Peverati,  P. A. Pieniazek,  
 Y. M. Rhee,  J. Ritchie,  M. A. Rohrdanz,  E. Rosta,  N. J. Russ,  
 H. F. Schaefer III,  N. E. Schultz,  N. Shenvi,  A. C. Simmonett,  A. Sodt,  
 D. Stuck,  K. S. Thanthiriwatte,  V. Vanovschi,  Tao Wang,  A. Warshel,  
 C. F. Williams,  Q. Wu,  X. Xu,  W. Zhang

 Please cite Q-Chem as follows:
 Y. Shao et al., Mol. Phys. 113, 184-215 (2015)
 DOI: 10.1080/00268976.2014.952696

 Q-Chem 5.2.0 for Intel X86 EM64T Linux

 Parts of Q-Chem use Armadillo 8.300.2 (Tropical Shenanigans).
 http://arma.sourceforge.net/

 Q-Chem begins on Wed Jun 12 18:32:22 2019  

n-62-23-30
Host: 0

     Scratch files written to /work1/malop/qc_8407581.hnode2/qchem1057//
NAlpha2: 58
NElect   58
Mult     1

Checking the input file for inconsistencies... 	...done.

--------------------------------------------------------------
User input:
--------------------------------------------------------------
$comment
Uracil XPS N K-edge 6-311(2+,+)G** (uc)
Optimized geometry for S2 at ccsd / aug-cc-pVDZ
$end

$molecule
0 1
C        -0.0581949473   -1.7976206857    0.0000000000
H        -2.0937197909   -1.3962500862    0.0000000000
H        -0.1994763750   -2.8770618511    0.0000000000
H         0.0643245546    2.0452320710    0.0000000000
C        -1.1889222032    0.4314192107    0.0000000000
O        -2.2890290202    0.9759697793    0.0000000000
C         1.3011427138    0.3335152409    0.0000000000
O         2.3251617259    1.0557727555    0.0000000000
N         0.0308489641    1.0316683625    0.0000000000
N        -1.1550971105   -0.9985052937    0.0000000000
C         1.2377799195   -1.0849263853    0.0000000000
H         2.1691699442   -1.6509592078    0.0000000000
$end

$rem
JOBTYPE SP
BASIS GENERAL
METHOD HF
n_frozen_core = 4
$end

$basis
H    0
6-311(2+,+)G**
****
O    0
S    1    1.000000
   8.58850000E+03    1.89515000E-03
S    1    1.000000
   1.29723000E+03    1.43859000E-02
S    1    1.000000
   2.99296000E+02    7.07320000E-02
S    1    1.000000
   8.73771000E+01    2.40001000E-01
S    1    1.000000
   2.56789000E+01    5.94797000E-01
S    1    1.000000
   3.74004000E+00    2.80802000E-01
SP   3    1.000000
   4.21175000E+01    1.13889000E-01   3.65114000E-02
   9.62837000E+00    9.20811000E-01   2.37153000E-01
   2.85332000E+00   -3.27447000E-03   8.19702000E-01
SP   1    1.000000
   9.05661000E-01    1.00000000E+00   1.00000000E+00
SP   1    1.000000
   2.55611000E-01    1.00000000E+00   1.00000000E+00
SP   1    1.000000
   8.45000000E-02    1.00000000E+00   1.00000000E+00
SP   1    1.000000
   2.54518072E-02    1.00000000E+00   1.00000000E+00
D    1    1.000000
   1.29200000E+00    1.00000000E+00
****
N    0
S    1    1.000000
   6.29348000E+03    1.96979000E-03
S    1    1.000000
   9.49044000E+02    1.49613000E-02
S    1    1.000000
   2.18776000E+02    7.35006000E-02
S    1    1.000000
   6.36916000E+01    2.48937000E-01
S    1    1.000000
   1.88282000E+01    6.02460000E-01
S    1    1.000000
   2.72023000E+00    2.56202000E-01
SP   3    1.000000
   3.06331000E+01    1.11906000E-01   3.83119000E-02
   7.02614000E+00    9.21666000E-01   2.37403000E-01
   2.11205000E+00   -2.56919000E-03   8.17592000E-01
SP   1    1.000000
   6.84009000E-01    1.00000000E+00   1.00000000E+00
SP   1    1.000000
   2.00878000E-01    1.00000000E+00   1.00000000E+00
SP   1    1.000000
   6.39000000E-02    1.00000000E+00   1.00000000E+00
SP   1    1.000000
   1.92469880E-02    1.00000000E+00   1.00000000E+00
D    1    1.000000
   9.13000000E-01    1.00000000E+00
****
C    0
S    1    1.000000
   4.56324000E+03    1.96665000E-03
S    1    1.000000
   6.82024000E+02    1.52306000E-02
S    1    1.000000
   1.54973000E+02    7.61269000E-02
S    1    1.000000
   4.44553000E+01    2.60801000E-01
S    1    1.000000
   1.30290000E+01    6.16462000E-01
S    1    1.000000
   1.82773000E+00    2.21006000E-01
SP   3    1.000000
   2.09642000E+01    1.14660000E-01   4.02487000E-02
   4.80331000E+00    9.19999000E-01   2.37594000E-01
   1.45933000E+00   -3.03068000E-03   8.15854000E-01
SP   1    1.000000
   4.83456000E-01    1.00000000E+00   1.00000000E+00
SP   1    1.000000
   1.45585000E-01    1.00000000E+00   1.00000000E+00
SP   1    1.000000
   4.38000000E-02    1.00000000E+00   1.00000000E+00
SP   1    1.000000
   1.31927711E-02    1.00000000E+00   1.00000000E+00
D    1    1.000000
   6.26000000E-01    1.00000000E+00
****
$end
--------------------------------------------------------------
 ----------------------------------------------------------------
             Standard Nuclear Orientation (Angstroms)
    I     Atom           X                Y                Z
 ----------------------------------------------------------------
    1      C      -0.1317389006    -1.7920898021    -0.0000000000
    2      H      -2.1496199998    -1.3097873901    -0.0000000000
    3      H      -0.3159955991    -2.8650311520    -0.0000000000
    4      H       0.1440774605     2.0428096324    -0.0000000000
    5      C      -1.1725887630     0.4803086117    -0.0000000000
    6      O      -2.2500820677     1.0683379552    -0.0000000000
    7      C       1.3115835701     0.2830871687     0.0000000000
    8      O       2.3636166765     0.9638934536     0.0000000000
    9      N       0.0701702980     1.0313899680    -0.0000000000
   10      N      -1.1958686845    -0.9498264415    -0.0000000000
   11      C       1.1916515800    -1.1316947256     0.0000000000
   12      H       2.0997050552    -1.7344545620     0.0000000000
 ----------------------------------------------------------------
 Molecular Point Group                 Cs    NOp =  2
 Largest Abelian Subgroup              Cs    NOp =  2
 Nuclear Repulsion Energy =         351.76271865 hartrees
 There are       29 alpha and       29 beta electrons
 Requested basis set is non-standard
 There are 116 shells and 276 basis functions

 Total QAlloc Memory Limit   2000 MB
 Mega-Array Size       188 MB
 MEM_STATIC part       192 MB

                       Distance Matrix (Angstroms)
             C (  1)   H (  2)   H (  3)   H (  4)   C (  5)   O (  6)
   H (  2)  2.074719
   H (  3)  1.088648  2.404363
   H (  4)  3.844805  4.062137  4.929358
   C (  5)  2.499433  2.039371  3.453267  2.043286
   O (  6)  3.559414  2.380246  4.383159  2.584878  1.227506
   C (  7)  2.527754  3.810142  3.543961  2.111799  2.491989  3.647202
   O (  8)  3.717828  5.053606  4.673434  2.467877  3.569118  4.614881
   N (  9)  2.830690  3.226233  3.915510  1.014116  1.359463  2.320547
   N ( 10)  1.357122  1.019418  2.107649  3.278922  1.430325  2.276918
   C ( 11)  1.479015  3.346014  2.297271  3.342886  2.861501  4.084810
   H ( 12)  2.232188  4.270492  2.667173  4.253493  3.951339  5.174582
             C (  7)   O (  8)   N (  9)   N ( 10)   C ( 11)
   O (  8)  1.253104
   N (  9)  1.449505  2.294439
   N ( 10)  2.794171  4.041319  2.351185
   C ( 11)  1.419856  2.401040  2.436525  2.394437
   H ( 12)  2.166012  2.711223  3.430584  3.387691  1.089899

 A cutoff of  1.0D-08 yielded   5044 shell pairs
 There are     33695 function pairs (     35678 Cartesian)
 Smallest overlap matrix eigenvalue = 3.44E-07

 Q-Chem warning in module stvman/mkSTV.C, line 318:

 Overlap eigenvalue is smaller than square root of threshold
 Use THRESH >= 12 to get rid of this warning

 Linear dependence detected in AO basis
 Tighter screening thresholds may be required for diffuse basis sets
 Use S2THRESH > 14 and THRESH = 14 in case of SCF convergence issues
 Number of orthogonalized atomic orbitals = 275
 Maximum deviation from orthogonality = 2.562E-10

 Scale SEOQF with 1.000000e-01/1.000000e-01/1.000000e-01

 Standard Electronic Orientation quadrupole field applied
 Nucleus-field energy     =     0.0000000101 hartrees
 Guess MOs from core Hamiltonian diagonalization

 -----------------------------------------------------------------------
  General SCF calculation program by
  Eric Jon Sundstrom, Paul Horn, Yuezhi Mao, Dmitri Zuev, Alec White,
  David Stuck, Shaama M.S., Shane Yost, Joonho Lee, David Small,
  Daniel Levine, Susi Lehtola, Hugh Burton, Evgeny Epifanovsky
 -----------------------------------------------------------------------
 Hartree-Fock
 using 4 threads for integral computing
 -------------------------------------------------------
 OpenMP Integral computing Module                
 Release: version 2.0, May 2017, Q-Chem Inc. Pleasanton 
 -------------------------------------------------------
 A restricted SCF calculation will be
 performed using DIIS
 SCF converges when DIIS error is below 1.0e-05
 ---------------------------------------
  Cycle       Energy         DIIS error
 ---------------------------------------
    1    -317.7063736553      1.18e-01  
    2    -299.0403057046      6.05e-02  
    3    -298.3813811425      7.95e-02  
    4    -381.0900960711      4.65e-02  
    5    -409.1296436061      1.79e-02  
    6    -410.5568114181      1.45e-02  
    7    -412.4493576415      2.69e-03  
    8    -412.5296466351      1.01e-03  
    9    -412.5425814620      4.06e-04  
   10    -412.5454765458      2.12e-04  
   11    -412.5465195801      7.98e-05  
   12    -412.5466611346      2.45e-05  
   13    -412.5466771241      1.29e-05  
   14    -412.5466797751      5.28e-06  Convergence criterion met
 ---------------------------------------
 SCF time:   CPU 96.60s  wall 26.00s 
 SCF   energy in the final basis set =     -412.5466797751
 Total energy in the final basis set =     -412.5466797751

 --------------------------------------------------------------
             Orbital Energies (a.u.) and Symmetries
 --------------------------------------------------------------

 Alpha MOs, Restricted
 -- Occupied --                  
-20.554 -20.538 -15.662 -15.640 -11.435 -11.393 -11.382 -11.272
  1 A'    2 A'    3 A'    4 A'    5 A'    6 A'    7 A'    8 A'                 
 -1.435  -1.380  -1.312  -1.251  -1.068  -0.949  -0.894  -0.804
  9 A'   10 A'   11 A'   12 A'   13 A'   14 A'   15 A'   16 A'                 
 -0.761  -0.737  -0.676  -0.665  -0.643  -0.615  -0.592  -0.560
 17 A'   18 A'   19 A'    1 A"   20 A'   21 A'   22 A'    2 A"                 
 -0.530  -0.488  -0.447  -0.436  -0.351
  3 A"   23 A'   24 A'    4 A"    5 A"                                         
 -- Virtual --                   
  0.003   0.018   0.019   0.022   0.031   0.033   0.035   0.035
 25 A'   26 A'    6 A"   27 A'   28 A'   29 A'   30 A'    7 A"                 
  0.039   0.044   0.046   0.048   0.051   0.053   0.055   0.055
  8 A"   31 A'   32 A'   33 A'    9 A"   34 A'   35 A'   10 A"                 
  0.066   0.067   0.072   0.073   0.085   0.086   0.089   0.097
 36 A'   37 A'   38 A'   11 A"   12 A"   39 A'   40 A'   41 A'                 
  0.109   0.112   0.117   0.117   0.120   0.127   0.130   0.136
 42 A'   13 A"   14 A"   43 A'   44 A'   45 A'   46 A'   47 A'                 
  0.138   0.141   0.150   0.162   0.164   0.173   0.178   0.189
 48 A'   49 A'   15 A"   50 A'   51 A'   16 A"   52 A'   17 A"                 
  0.196   0.207   0.208   0.230   0.232   0.240   0.242   0.249
 53 A'   54 A'   18 A"   55 A'   56 A'   57 A'   19 A"   58 A'                 
  0.256   0.267   0.272   0.276   0.279   0.283   0.285   0.298
 59 A'   60 A'   61 A'   20 A"   62 A'   21 A"   63 A'   64 A'                 
  0.329   0.330   0.337   0.351   0.379   0.390   0.399   0.406
 22 A"   65 A'   66 A'   67 A'   68 A'   69 A'   70 A'   23 A"                 
  0.407   0.419   0.423   0.435   0.440   0.451   0.464   0.478
 71 A'   72 A'   24 A"   73 A'   74 A'   75 A'   76 A'   77 A'                 
  0.479   0.493   0.517   0.539   0.556   0.605   0.625   0.632
 78 A'   79 A'   80 A'   81 A'   82 A'   83 A'   84 A'   85 A'                 
  0.695   0.735   0.743   0.744   0.770   0.771   0.795   0.818
 86 A'   87 A'   88 A'   25 A"   89 A'   26 A"   27 A"   90 A'                 
  0.826   0.868   0.874   0.931   0.943   0.956   0.968   0.978
 28 A"   91 A'   92 A'   93 A'   94 A'   95 A'   96 A'   97 A'                 
  1.006   1.024   1.037   1.068   1.087   1.092   1.108   1.152
 98 A'   99 A'   29 A"  100 A'   30 A"  101 A'  102 A'  103 A'                 
  1.200   1.234   1.248   1.263   1.283   1.359   1.362   1.389
 31 A"  104 A'   32 A"  105 A'  106 A'  107 A'   33 A"   34 A"                 
  1.402   1.413   1.423   1.457   1.463   1.516   1.518   1.532
 35 A"   36 A"  108 A'  109 A'   37 A"   38 A"  110 A'  111 A'                 
  1.556   1.602   1.704   1.744   1.779   1.798   1.874   1.876
112 A'  113 A'  114 A'  115 A'   39 A"  116 A'  117 A'   40 A"                 
  1.895   1.913   1.926   1.957   1.997   2.005   2.049   2.102
118 A'   41 A"  119 A'  120 A'  121 A'   42 A"  122 A'  123 A'                 
  2.113   2.175   2.204   2.213   2.264   2.271   2.286   2.344
124 A'  125 A'   43 A"  126 A'  127 A'  128 A'   44 A"  129 A'                 
  2.475   2.534   2.571   2.637   2.644   2.705   2.734   2.797
130 A'   45 A"  131 A'  132 A'   46 A"   47 A"  133 A'   48 A"                 
  2.810   2.914   2.935   2.974   3.027   3.051   3.077   3.110
134 A'  135 A'  136 A'  137 A'  138 A'  139 A'   49 A"  140 A'                 
  3.143   3.160   3.173   3.243   3.253   3.287   3.288   3.328
 50 A"  141 A'   51 A"  142 A'   52 A"  143 A'   53 A"  144 A'                 
  3.333   3.335   3.494   3.553   3.708   3.733   3.740   3.753
145 A'   54 A"  146 A'  147 A'  148 A'   55 A"   56 A"  149 A'                 
  3.812   3.867   3.892   3.967   4.018   4.111   4.226   4.294
150 A'  151 A'  152 A'  153 A'  154 A'  155 A'  156 A'   57 A"                 
  4.349   4.397   4.449   4.598   4.986   5.107   5.251   5.406
 58 A"  157 A'  158 A'  159 A'  160 A'  161 A'  162 A'  163 A'                 
  5.514   5.620   5.636   5.640   5.703   5.771   5.810   5.833
164 A'   59 A"   60 A"  165 A'  166 A'  167 A'  168 A'  169 A'                 
  6.423   6.436   7.617   7.699   9.838   9.901  20.615  20.673
170 A'  171 A'  172 A'  173 A'  174 A'  175 A'  176 A'  177 A'                 
 20.691  20.837  30.146  30.213  40.859  40.910  80.169  80.210
178 A'  179 A'  180 A'  181 A'  182 A'  183 A'  184 A'  185 A'                 
 80.233  80.370 116.272 116.329 159.212 159.253 321.996 322.029
186 A'  187 A'  188 A'  189 A'  190 A'  191 A'  192 A'  193 A'                 
322.052 322.181 460.376 460.427 631.916 631.9491431.5501431.582
194 A'  195 A'  196 A'  197 A'  198 A'  199 A'  200 A'  201 A'                 
*******1431.7242012.8532012.9002759.3152759.3448749.7708749.806
202 A'  203 A'  204 A'  205 A'  206 A'  207 A'  208 A'  209 A'                 
*******8749.936********************************
210 A'  211 A'  212 A'  213 A'  214 A'  215 A'                                 

 Beta MOs, Restricted
 -- Occupied --                  
-20.554 -20.538 -15.662 -15.640 -11.435 -11.393 -11.382 -11.272
  1 A'    2 A'    3 A'    4 A'    5 A'    6 A'    7 A'    8 A'                 
 -1.435  -1.380  -1.312  -1.251  -1.068  -0.949  -0.894  -0.804
  9 A'   10 A'   11 A'   12 A'   13 A'   14 A'   15 A'   16 A'                 
 -0.761  -0.737  -0.676  -0.665  -0.643  -0.615  -0.592  -0.560
 17 A'   18 A'   19 A'    1 A"   20 A'   21 A'   22 A'    2 A"                 
 -0.530  -0.488  -0.447  -0.436  -0.351
  3 A"   23 A'   24 A'    4 A"    5 A"                                         
 -- Virtual --                   
  0.003   0.018   0.019   0.022   0.031   0.033   0.035   0.035
 25 A'   26 A'    6 A"   27 A'   28 A'   29 A'   30 A'    7 A"                 
  0.039   0.044   0.046   0.048   0.051   0.053   0.055   0.055
  8 A"   31 A'   32 A'   33 A'    9 A"   34 A'   35 A'   10 A"                 
  0.066   0.067   0.072   0.073   0.085   0.086   0.089   0.097
 36 A'   37 A'   38 A'   11 A"   12 A"   39 A'   40 A'   41 A'                 
  0.109   0.112   0.117   0.117   0.120   0.127   0.130   0.136
 42 A'   13 A"   14 A"   43 A'   44 A'   45 A'   46 A'   47 A'                 
  0.138   0.141   0.150   0.162   0.164   0.173   0.178   0.189
 48 A'   49 A'   15 A"   50 A'   51 A'   16 A"   52 A'   17 A"                 
  0.196   0.207   0.208   0.230   0.232   0.240   0.242   0.249
 53 A'   54 A'   18 A"   55 A'   56 A'   57 A'   19 A"   58 A'                 
  0.256   0.267   0.272   0.276   0.279   0.283   0.285   0.298
 59 A'   60 A'   61 A'   20 A"   62 A'   21 A"   63 A'   64 A'                 
  0.329   0.330   0.337   0.351   0.379   0.390   0.399   0.406
 22 A"   65 A'   66 A'   67 A'   68 A'   69 A'   70 A'   23 A"                 
  0.407   0.419   0.423   0.435   0.440   0.451   0.464   0.478
 71 A'   72 A'   24 A"   73 A'   74 A'   75 A'   76 A'   77 A'                 
  0.479   0.493   0.517   0.539   0.556   0.605   0.625   0.632
 78 A'   79 A'   80 A'   81 A'   82 A'   83 A'   84 A'   85 A'                 
  0.695   0.735   0.743   0.744   0.770   0.771   0.795   0.818
 86 A'   87 A'   88 A'   25 A"   89 A'   26 A"   27 A"   90 A'                 
  0.826   0.868   0.874   0.931   0.943   0.956   0.968   0.978
 28 A"   91 A'   92 A'   93 A'   94 A'   95 A'   96 A'   97 A'                 
  1.006   1.024   1.037   1.068   1.087   1.092   1.108   1.152
 98 A'   99 A'   29 A"  100 A'   30 A"  101 A'  102 A'  103 A'                 
  1.200   1.234   1.248   1.263   1.283   1.359   1.362   1.389
 31 A"  104 A'   32 A"  105 A'  106 A'  107 A'   33 A"   34 A"                 
  1.402   1.413   1.423   1.457   1.463   1.516   1.518   1.532
 35 A"   36 A"  108 A'  109 A'   37 A"   38 A"  110 A'  111 A'                 
  1.556   1.602   1.704   1.744   1.779   1.798   1.874   1.876
112 A'  113 A'  114 A'  115 A'   39 A"  116 A'  117 A'   40 A"                 
  1.895   1.913   1.926   1.957   1.997   2.005   2.049   2.102
118 A'   41 A"  119 A'  120 A'  121 A'   42 A"  122 A'  123 A'                 
  2.113   2.175   2.204   2.213   2.264   2.271   2.286   2.344
124 A'  125 A'   43 A"  126 A'  127 A'  128 A'   44 A"  129 A'                 
  2.475   2.534   2.571   2.637   2.644   2.705   2.734   2.797
130 A'   45 A"  131 A'  132 A'   46 A"   47 A"  133 A'   48 A"                 
  2.810   2.914   2.935   2.974   3.027   3.051   3.077   3.110
134 A'  135 A'  136 A'  137 A'  138 A'  139 A'   49 A"  140 A'                 
  3.143   3.160   3.173   3.243   3.253   3.287   3.288   3.328
 50 A"  141 A'   51 A"  142 A'   52 A"  143 A'   53 A"  144 A'                 
  3.333   3.335   3.494   3.553   3.708   3.733   3.740   3.753
145 A'   54 A"  146 A'  147 A'  148 A'   55 A"   56 A"  149 A'                 
  3.812   3.867   3.892   3.967   4.018   4.111   4.226   4.294
150 A'  151 A'  152 A'  153 A'  154 A'  155 A'  156 A'   57 A"                 
  4.349   4.397   4.449   4.598   4.986   5.107   5.251   5.406
 58 A"  157 A'  158 A'  159 A'  160 A'  161 A'  162 A'  163 A'                 
  5.514   5.620   5.636   5.640   5.703   5.771   5.810   5.833
164 A'   59 A"   60 A"  165 A'  166 A'  167 A'  168 A'  169 A'                 
  6.423   6.436   7.617   7.699   9.838   9.901  20.615  20.673
170 A'  171 A'  172 A'  173 A'  174 A'  175 A'  176 A'  177 A'                 
 20.691  20.837  30.146  30.213  40.859  40.910  80.169  80.210
178 A'  179 A'  180 A'  181 A'  182 A'  183 A'  184 A'  185 A'                 
 80.233  80.370 116.272 116.329 159.212 159.253 321.996 322.029
186 A'  187 A'  188 A'  189 A'  190 A'  191 A'  192 A'  193 A'                 
322.052 322.181 460.376 460.427 631.916 631.9491431.5501431.582
194 A'  195 A'  196 A'  197 A'  198 A'  199 A'  200 A'  201 A'                 
*******1431.7242012.8532012.9002759.3152759.3448749.7708749.806
202 A'  203 A'  204 A'  205 A'  206 A'  207 A'  208 A'  209 A'                 
*******8749.936********************************
210 A'  211 A'  212 A'  213 A'  214 A'  215 A'                                 
 --------------------------------------------------------------

          Ground-State Mulliken Net Atomic Charges

     Atom                 Charge (a.u.)
  ----------------------------------------
      1 C                    -0.006652
      2 H                     0.356880
      3 H                     0.180329
      4 H                     0.397263
      5 C                     0.202442
      6 O                    -0.070416
      7 C                    -0.032664
      8 O                    -0.152650
      9 N                    -0.533087
     10 N                    -0.348983
     11 C                    -0.243226
     12 H                     0.250764
  ----------------------------------------
  Sum of atomic charges =     0.000000

 -----------------------------------------------------------------
                    Cartesian Multipole Moments
 -----------------------------------------------------------------
    Charge (ESU x 10^10)
                 0.0000
    Dipole Moment (Debye)
         X      -2.1638      Y      -5.2361      Z      -0.0000
       Tot       5.6656
    Quadrupole Moments (Debye-Ang)
        XX     -62.1442     XY       3.2987     YY     -37.0041
        XZ      -0.0000     YZ      -0.0000     ZZ     -47.6457
    Octopole Moments (Debye-Ang^2)
       XXX     -17.7605    XXY     -35.3949    XYY      -5.5732
       YYY     -11.7415    XXZ      -0.0000    XYZ      -0.0000
       YYZ      -0.0000    XZZ      -2.7622    YZZ       4.7208
       ZZZ      -0.0000
    Hexadecapole Moments (Debye-Ang^3)
      XXXX    -747.8520   XXXY      12.3701   XXYY    -184.1192
      XYYY      19.5542   YYYY    -303.9117   XXXZ      -0.0000
      XXYZ       0.0000   XYYZ      -0.0000   YYYZ      -0.0000
      XXZZ    -117.8707   XYZZ       3.4028   YYZZ     -79.5712
      XZZZ      -0.0000   YZZZ      -0.0000   ZZZZ     -48.9526
 -----------------------------------------------------------------
Archival summary:
1\1\n-62-23-30\SP\HF\BasisUnspecified\2244\malop\WedJun1218:32:492019WedJun1218:32:492019\0\\#,HF,BasisUnspecified,\\0,1\N\H,1,1.01412\C,1,1.35946,2,118.093\O,3,1.22751,1,127.463,2,-0,0\N,3,1.43032,1,114.847,2,-180,0\H,5,1.01942,3,111.61,1,180,0\C,5,1.35712,3,127.429,1,-0,0\H,7,1.08865,5,118.617,3,-180,0\C,1,1.4495,2,116.902,3,-180,0\O,9,1.2531,1,116.011,2,0,0\C,9,1.41986,1,116.235,2,-180,0\H,11,1.0899,9,118.731,1,180,0\\HF=-412.54668\\@

 Total job time:  26.65s(wall), 97.00s(cpu) 
 Wed Jun 12 18:32:49 2019

        *************************************************************
        *                                                           *
        *  Thank you very much for using Q-Chem.  Have a nice day.  *
        *                                                           *
        *************************************************************


 
User input: 2 of 2 
 
                  Welcome to Q-Chem
     A Quantum Leap Into The Future Of Chemistry


 Q-Chem 5.2 (devel), Q-Chem, Inc., Pleasanton, CA (2019)

 Yihan Shao,  Zhengting Gan,  E. Epifanovsky,  A. T. B. Gilbert,  M. Wormit,  
 J. Kussmann,  A. W. Lange,  A. Behn,  Jia Deng,  Xintian Feng,  D. Ghosh,  
 M. Goldey,  P. R. Horn,  L. D. Jacobson,  I. Kaliman,  T. Kus,  A. Landau,  
 Jie Liu,  E. I. Proynov,  R. M. Richard,  R. P. Steele,  E. J. Sundstrom,  
 H. L. Woodcock III,  P. M. Zimmerman,  D. Zuev,  B. Albrecht,  E. Alguire,  
 S. A. Baeppler,  D. Barton,  Z. Benda,  Y. A. Bernard,  E. J. Berquist,  
 K. B. Bravaya,  H. Burton,  D. Casanova,  Chun-Min Chang,  Yunqing Chen,  
 A. Chien,  K. D. Closser,  M. P. Coons,  S. Coriani,  S. Dasgupta,  
 A. L. Dempwolff,  M. Diedenhofen,  Hainam Do,  R. G. Edgar,  Po-Tung Fang,  
 S. Faraji,  S. Fatehi,  Qingguo Feng,  K. D. Fenk,  J. Fosso-Tande,  
 J. Gayvert,  Qinghui Ge,  A. Ghysels,  G. Gidofalvi,  J. Gomes,  
 J. Gonthier,  A. Gunina,  D. Hait,  M. W. D. Hanson-Heine,  
 P. H. P. Harbach,  A. W. Hauser,  M. F. Herbst,  J. E. Herr,  
 E. G. Hohenstein,  Z. C. Holden,  Kerwin Hui,  B. C. Huynh,  T.-C. Jagau,  
 Hyunjun Ji,  B. Kaduk,  K. Khistyaev,  Jaehoon Kim,  P. Klunzinger,  K. Koh,  
 D. Kosenkov,  L. Koulias,  T. Kowalczyk,  C. M. Krauter,  A. Kunitsa,  
 Ka Un Lao,  A. Laurent,  K. V. Lawler,  Joonho Lee,  D. Lefrancois,  
 S. Lehtola,  D. S. Levine,  Yi-Pei Li,  You-Sheng Lin,  Fenglai Liu,  
 E. Livshits,  A. Luenser,  P. Manohar,  E. Mansoor,  S. F. Manzer,  
 Shan-Ping Mao,  Yuezhi Mao,  N. Mardirossian,  A. V. Marenich,  
 T. Markovich,  L. A. Martinez-Martinez,  S. A. Maurer,  N. J. Mayhall,  
 S. C. McKenzie,  J.-M. Mewes,  P. Morgante,  A. F. Morrison,  
 J. W. Mullinax,  K. Nanda,  T. S. Nguyen-Beck,  R. Olivares-Amaya,  
 J. A. Parkhill,  Zheng Pei,  T. M. Perrine,  F. Plasser,  P. Pokhilko,  
 S. Prager,  A. Prociuk,  E. Ramos,  D. R. Rehn,  F. Rob,  M. Scheurer,  
 M. Schneider,  N. Sergueev,  S. M. Sharada,  S. Sharma,  D. W. Small,  
 T. Stauch,  T. Stein,  Yu-Chuan Su,  A. J. W. Thom,  A. Tkatchenko,  
 T. Tsuchimochi,  N. M. Tubman,  L. Vogt,  M. L. Vidal,  O. Vydrov,  
 M. A. Watson,  J. Wenzel,  M. de Wergifosse,  T. A. Wesolowski,  A. White,  
 J. Witte,  A. Yamada,  Jun Yang,  K. Yao,  S. Yeganeh,  S. R. Yost,  
 Zhi-Qiang You,  A. Zech,  Igor Ying Zhang,  Xing Zhang,  Yan Zhao,  
 Ying Zhu,  B. R. Brooks,  G. K. L. Chan,  C. J. Cramer,  M. S. Gordon,  
 W. J. Hehre,  A. Klamt,  M. W. Schmidt,  C. D. Sherrill,  D. G. Truhlar,  
 A. Aspuru-Guzik,  R. Baer,  A. T. Bell,  N. A. Besley,  Jeng-Da Chai,  
 A. E. DePrince, III,  R. A. DiStasio Jr.,  A. Dreuw,  B. D. Dunietz,  
 T. R. Furlani,  Chao-Ping Hsu,  Yousung Jung,  Jing Kong,  D. S. Lambrecht,  
 WanZhen Liang,  C. Ochsenfeld,  V. A. Rassolov,  L. V. Slipchenko,  
 J. E. Subotnik,  T. Van Voorhis,  J. M. Herbert,  A. I. Krylov,  
 P. M. W. Gill,  M. Head-Gordon

 Contributors to earlier versions of Q-Chem not listed above: 
 R. D. Adamson,  B. Austin,  J. Baker,  G. J. O. Beran,  K. Brandhorst,  
 S. T. Brown,  E. F. C. Byrd,  A. K. Chakraborty,  C.-L. Cheng,  
 Siu Hung Chien,  D. M. Chipman,  D. L. Crittenden,  H. Dachsel,  
 R. J. Doerksen,  A. D. Dutoi,  L. Fusti-Molnar,  W. A. Goddard III,  
 A. Golubeva-Zadorozhnaya,  S. R. Gwaltney,  G. Hawkins,  A. Heyden,  
 S. Hirata,  G. Kedziora,  F. J. Keil,  C. Kelley,  Jihan Kim,  R. A. King,  
 R. Z. Khaliullin,  P. P. Korambath,  W. Kurlancheek,  A. M. Lee,  M. S. Lee,  
 S. V. Levchenko,  Ching Yeh Lin,  D. Liotard,  R. C. Lochan,  I. Lotan,  
 P. E. Maslen,  N. Nair,  D. P. O'Neill,  D. Neuhauser,  E. Neuscamman,  
 C. M. Oana,  R. Olson,  B. Peters,  R. Peverati,  P. A. Pieniazek,  
 Y. M. Rhee,  J. Ritchie,  M. A. Rohrdanz,  E. Rosta,  N. J. Russ,  
 H. F. Schaefer III,  N. E. Schultz,  N. Shenvi,  A. C. Simmonett,  A. Sodt,  
 D. Stuck,  K. S. Thanthiriwatte,  V. Vanovschi,  Tao Wang,  A. Warshel,  
 C. F. Williams,  Q. Wu,  X. Xu,  W. Zhang

 Please cite Q-Chem as follows:
 Y. Shao et al., Mol. Phys. 113, 184-215 (2015)
 DOI: 10.1080/00268976.2014.952696

 Q-Chem 5.2.0 for Intel X86 EM64T Linux

 Parts of Q-Chem use Armadillo 8.300.2 (Tropical Shenanigans).
 http://arma.sourceforge.net/

 Q-Chem begins on Wed Jun 12 18:32:49 2019  

n-62-23-30
Host: 0

     Scratch files written to /work1/malop/qc_8407581.hnode2/qchem1057//
NAlpha2: 60
NElect   58
Mult     3

Checking the input file for inconsistencies... 	...done.

--------------------------------------------------------------
User input:
--------------------------------------------------------------

$molecule
0 3
C        -0.0581949473   -1.7976206857    0.0000000000
H        -2.0937197909   -1.3962500862    0.0000000000
H        -0.1994763750   -2.8770618511    0.0000000000
H         0.0643245546    2.0452320710    0.0000000000
C        -1.1889222032    0.4314192107    0.0000000000
O        -2.2890290202    0.9759697793    0.0000000000
C         1.3011427138    0.3335152409    0.0000000000
O         2.3251617259    1.0557727555    0.0000000000
N         0.0308489641    1.0316683625    0.0000000000
N        -1.1550971105   -0.9985052937    0.0000000000
C         1.2377799195   -1.0849263853    0.0000000000
H         2.1691699442   -1.6509592078    0.0000000000
$end

$rem
   JOB_TYPE  =  SP
   BASIS  = general
   print_general_basis = true
   SCF_GUESS read
   mom_start = 1
   METHOD  =  EOM-CCSD
   CVS_IP_STATES = [4,0]
   !eom_davidson_convergence = 4
   cvs_eom_shift = 14500
   n_frozen_core = 4
   cc_trans_prop = true
   cc_memory = 40000
   cc_do_dyson = true
   MOLDEN_FORMAT = TRUE
$end

$basis
H    0
6-311(2+,+)G**
****
O    0
S    1    1.000000
   8.58850000E+03    1.89515000E-03
S    1    1.000000
   1.29723000E+03    1.43859000E-02
S    1    1.000000
   2.99296000E+02    7.07320000E-02
S    1    1.000000
   8.73771000E+01    2.40001000E-01
S    1    1.000000
   2.56789000E+01    5.94797000E-01
S    1    1.000000
   3.74004000E+00    2.80802000E-01
SP   3    1.000000
   4.21175000E+01    1.13889000E-01   3.65114000E-02
   9.62837000E+00    9.20811000E-01   2.37153000E-01
   2.85332000E+00   -3.27447000E-03   8.19702000E-01
SP   1    1.000000
   9.05661000E-01    1.00000000E+00   1.00000000E+00
SP   1    1.000000
   2.55611000E-01    1.00000000E+00   1.00000000E+00
SP   1    1.000000
   8.45000000E-02    1.00000000E+00   1.00000000E+00
SP   1    1.000000
   2.54518072E-02    1.00000000E+00   1.00000000E+00
D    1    1.000000
   1.29200000E+00    1.00000000E+00
****
N    0
S    1    1.000000
   6.29348000E+03    1.96979000E-03
S    1    1.000000
   9.49044000E+02    1.49613000E-02
S    1    1.000000
   2.18776000E+02    7.35006000E-02
S    1    1.000000
   6.36916000E+01    2.48937000E-01
S    1    1.000000
   1.88282000E+01    6.02460000E-01
S    1    1.000000
   2.72023000E+00    2.56202000E-01
SP   3    1.000000
   3.06331000E+01    1.11906000E-01   3.83119000E-02
   7.02614000E+00    9.21666000E-01   2.37403000E-01
   2.11205000E+00   -2.56919000E-03   8.17592000E-01
SP   1    1.000000
   6.84009000E-01    1.00000000E+00   1.00000000E+00
SP   1    1.000000
   2.00878000E-01    1.00000000E+00   1.00000000E+00
SP   1    1.000000
   6.39000000E-02    1.00000000E+00   1.00000000E+00
SP   1    1.000000
   1.92469880E-02    1.00000000E+00   1.00000000E+00
D    1    1.000000
   9.13000000E-01    1.00000000E+00
****
C    0
S    1    1.000000
   4.56324000E+03    1.96665000E-03
S    1    1.000000
   6.82024000E+02    1.52306000E-02
S    1    1.000000
   1.54973000E+02    7.61269000E-02
S    1    1.000000
   4.44553000E+01    2.60801000E-01
S    1    1.000000
   1.30290000E+01    6.16462000E-01
S    1    1.000000
   1.82773000E+00    2.21006000E-01
SP   3    1.000000
   2.09642000E+01    1.14660000E-01   4.02487000E-02
   4.80331000E+00    9.19999000E-01   2.37594000E-01
   1.45933000E+00   -3.03068000E-03   8.15854000E-01
SP   1    1.000000
   4.83456000E-01    1.00000000E+00   1.00000000E+00
SP   1    1.000000
   1.45585000E-01    1.00000000E+00   1.00000000E+00
SP   1    1.000000
   4.38000000E-02    1.00000000E+00   1.00000000E+00
SP   1    1.000000
   1.31927711E-02    1.00000000E+00   1.00000000E+00
D    1    1.000000
   6.26000000E-01    1.00000000E+00
****
$end
--------------------------------------------------------------
 ----------------------------------------------------------------
             Standard Nuclear Orientation (Angstroms)
    I     Atom           X                Y                Z
 ----------------------------------------------------------------
    1      C      -0.1317389006    -1.7920898021    -0.0000000000
    2      H      -2.1496199998    -1.3097873901    -0.0000000000
    3      H      -0.3159955991    -2.8650311520    -0.0000000000
    4      H       0.1440774605     2.0428096324    -0.0000000000
    5      C      -1.1725887630     0.4803086117    -0.0000000000
    6      O      -2.2500820677     1.0683379552    -0.0000000000
    7      C       1.3115835701     0.2830871687     0.0000000000
    8      O       2.3636166765     0.9638934536     0.0000000000
    9      N       0.0701702980     1.0313899680    -0.0000000000
   10      N      -1.1958686845    -0.9498264415    -0.0000000000
   11      C       1.1916515800    -1.1316947256     0.0000000000
   12      H       2.0997050552    -1.7344545620     0.0000000000
 ----------------------------------------------------------------
 Molecular Point Group                 Cs    NOp =  2
 Largest Abelian Subgroup              Cs    NOp =  2
 Nuclear Repulsion Energy =         351.76271865 hartrees
 There are       30 alpha and       28 beta electrons
 Requested basis set is non-standard
Basis set in general basis input format:
-----------------------------------------------------------------------
$basis
C    0
S    1    1.000000
   4.56324000E+03    1.96665000E-03 
S    1    1.000000
   6.82024000E+02    1.52306000E-02 
S    1    1.000000
   1.54973000E+02    7.61269000E-02 
S    1    1.000000
   4.44553000E+01    2.60801000E-01 
S    1    1.000000
   1.30290000E+01    6.16462000E-01 
S    1    1.000000
   1.82773000E+00    2.21006000E-01 
SP   3    1.000000
   2.09642000E+01    1.14660000E-01   4.02487000E-02 
   4.80331000E+00    9.19999000E-01   2.37594000E-01 
   1.45933000E+00   -3.03068000E-03   8.15854000E-01 
SP   1    1.000000
   4.83456000E-01    1.00000000E+00   1.00000000E+00 
SP   1    1.000000
   1.45585000E-01    1.00000000E+00   1.00000000E+00 
SP   1    1.000000
   4.38000000E-02    1.00000000E+00   1.00000000E+00 
SP   1    1.000000
   1.31927711E-02    1.00000000E+00   1.00000000E+00 
D    1    1.000000
   6.26000000E-01    1.00000000E+00 
****
H    0
S    3    1.000000
   3.38650000E+01    2.54938000E-02 
   5.09479000E+00    1.90373000E-01 
   1.15879000E+00    8.52161000E-01 
S    1    1.000000
   3.25840000E-01    1.00000000E+00 
S    1    1.000000
   1.02741000E-01    1.00000000E+00 
S    1    1.000000
   3.60000000E-02    1.00000000E+00 
P    1    1.000000
   7.50000000E-01    1.00000000E+00 
****
H    0
S    3    1.000000
   3.38650000E+01    2.54938000E-02 
   5.09479000E+00    1.90373000E-01 
   1.15879000E+00    8.52161000E-01 
S    1    1.000000
   3.25840000E-01    1.00000000E+00 
S    1    1.000000
   1.02741000E-01    1.00000000E+00 
S    1    1.000000
   3.60000000E-02    1.00000000E+00 
P    1    1.000000
   7.50000000E-01    1.00000000E+00 
****
H    0
S    3    1.000000
   3.38650000E+01    2.54938000E-02 
   5.09479000E+00    1.90373000E-01 
   1.15879000E+00    8.52161000E-01 
S    1    1.000000
   3.25840000E-01    1.00000000E+00 
S    1    1.000000
   1.02741000E-01    1.00000000E+00 
S    1    1.000000
   3.60000000E-02    1.00000000E+00 
P    1    1.000000
   7.50000000E-01    1.00000000E+00 
****
C    0
S    1    1.000000
   4.56324000E+03    1.96665000E-03 
S    1    1.000000
   6.82024000E+02    1.52306000E-02 
S    1    1.000000
   1.54973000E+02    7.61269000E-02 
S    1    1.000000
   4.44553000E+01    2.60801000E-01 
S    1    1.000000
   1.30290000E+01    6.16462000E-01 
S    1    1.000000
   1.82773000E+00    2.21006000E-01 
SP   3    1.000000
   2.09642000E+01    1.14660000E-01   4.02487000E-02 
   4.80331000E+00    9.19999000E-01   2.37594000E-01 
   1.45933000E+00   -3.03068000E-03   8.15854000E-01 
SP   1    1.000000
   4.83456000E-01    1.00000000E+00   1.00000000E+00 
SP   1    1.000000
   1.45585000E-01    1.00000000E+00   1.00000000E+00 
SP   1    1.000000
   4.38000000E-02    1.00000000E+00   1.00000000E+00 
SP   1    1.000000
   1.31927711E-02    1.00000000E+00   1.00000000E+00 
D    1    1.000000
   6.26000000E-01    1.00000000E+00 
****
O    0
S    1    1.000000
   8.58850000E+03    1.89515000E-03 
S    1    1.000000
   1.29723000E+03    1.43859000E-02 
S    1    1.000000
   2.99296000E+02    7.07320000E-02 
S    1    1.000000
   8.73771000E+01    2.40001000E-01 
S    1    1.000000
   2.56789000E+01    5.94797000E-01 
S    1    1.000000
   3.74004000E+00    2.80802000E-01 
SP   3    1.000000
   4.21175000E+01    1.13889000E-01   3.65114000E-02 
   9.62837000E+00    9.20811000E-01   2.37153000E-01 
   2.85332000E+00   -3.27447000E-03   8.19702000E-01 
SP   1    1.000000
   9.05661000E-01    1.00000000E+00   1.00000000E+00 
SP   1    1.000000
   2.55611000E-01    1.00000000E+00   1.00000000E+00 
SP   1    1.000000
   8.45000000E-02    1.00000000E+00   1.00000000E+00 
SP   1    1.000000
   2.54518072E-02    1.00000000E+00   1.00000000E+00 
D    1    1.000000
   1.29200000E+00    1.00000000E+00 
****
C    0
S    1    1.000000
   4.56324000E+03    1.96665000E-03 
S    1    1.000000
   6.82024000E+02    1.52306000E-02 
S    1    1.000000
   1.54973000E+02    7.61269000E-02 
S    1    1.000000
   4.44553000E+01    2.60801000E-01 
S    1    1.000000
   1.30290000E+01    6.16462000E-01 
S    1    1.000000
   1.82773000E+00    2.21006000E-01 
SP   3    1.000000
   2.09642000E+01    1.14660000E-01   4.02487000E-02 
   4.80331000E+00    9.19999000E-01   2.37594000E-01 
   1.45933000E+00   -3.03068000E-03   8.15854000E-01 
SP   1    1.000000
   4.83456000E-01    1.00000000E+00   1.00000000E+00 
SP   1    1.000000
   1.45585000E-01    1.00000000E+00   1.00000000E+00 
SP   1    1.000000
   4.38000000E-02    1.00000000E+00   1.00000000E+00 
SP   1    1.000000
   1.31927711E-02    1.00000000E+00   1.00000000E+00 
D    1    1.000000
   6.26000000E-01    1.00000000E+00 
****
O    0
S    1    1.000000
   8.58850000E+03    1.89515000E-03 
S    1    1.000000
   1.29723000E+03    1.43859000E-02 
S    1    1.000000
   2.99296000E+02    7.07320000E-02 
S    1    1.000000
   8.73771000E+01    2.40001000E-01 
S    1    1.000000
   2.56789000E+01    5.94797000E-01 
S    1    1.000000
   3.74004000E+00    2.80802000E-01 
SP   3    1.000000
   4.21175000E+01    1.13889000E-01   3.65114000E-02 
   9.62837000E+00    9.20811000E-01   2.37153000E-01 
   2.85332000E+00   -3.27447000E-03   8.19702000E-01 
SP   1    1.000000
   9.05661000E-01    1.00000000E+00   1.00000000E+00 
SP   1    1.000000
   2.55611000E-01    1.00000000E+00   1.00000000E+00 
SP   1    1.000000
   8.45000000E-02    1.00000000E+00   1.00000000E+00 
SP   1    1.000000
   2.54518072E-02    1.00000000E+00   1.00000000E+00 
D    1    1.000000
   1.29200000E+00    1.00000000E+00 
****
N    0
S    1    1.000000
   6.29348000E+03    1.96979000E-03 
S    1    1.000000
   9.49044000E+02    1.49613000E-02 
S    1    1.000000
   2.18776000E+02    7.35006000E-02 
S    1    1.000000
   6.36916000E+01    2.48937000E-01 
S    1    1.000000
   1.88282000E+01    6.02460000E-01 
S    1    1.000000
   2.72023000E+00    2.56202000E-01 
SP   3    1.000000
   3.06331000E+01    1.11906000E-01   3.83119000E-02 
   7.02614000E+00    9.21666000E-01   2.37403000E-01 
   2.11205000E+00   -2.56919000E-03   8.17592000E-01 
SP   1    1.000000
   6.84009000E-01    1.00000000E+00   1.00000000E+00 
SP   1    1.000000
   2.00878000E-01    1.00000000E+00   1.00000000E+00 
SP   1    1.000000
   6.39000000E-02    1.00000000E+00   1.00000000E+00 
SP   1    1.000000
   1.92469880E-02    1.00000000E+00   1.00000000E+00 
D    1    1.000000
   9.13000000E-01    1.00000000E+00 
****
N    0
S    1    1.000000
   6.29348000E+03    1.96979000E-03 
S    1    1.000000
   9.49044000E+02    1.49613000E-02 
S    1    1.000000
   2.18776000E+02    7.35006000E-02 
S    1    1.000000
   6.36916000E+01    2.48937000E-01 
S    1    1.000000
   1.88282000E+01    6.02460000E-01 
S    1    1.000000
   2.72023000E+00    2.56202000E-01 
SP   3    1.000000
   3.06331000E+01    1.11906000E-01   3.83119000E-02 
   7.02614000E+00    9.21666000E-01   2.37403000E-01 
   2.11205000E+00   -2.56919000E-03   8.17592000E-01 
SP   1    1.000000
   6.84009000E-01    1.00000000E+00   1.00000000E+00 
SP   1    1.000000
   2.00878000E-01    1.00000000E+00   1.00000000E+00 
SP   1    1.000000
   6.39000000E-02    1.00000000E+00   1.00000000E+00 
SP   1    1.000000
   1.92469880E-02    1.00000000E+00   1.00000000E+00 
D    1    1.000000
   9.13000000E-01    1.00000000E+00 
****
C    0
S    1    1.000000
   4.56324000E+03    1.96665000E-03 
S    1    1.000000
   6.82024000E+02    1.52306000E-02 
S    1    1.000000
   1.54973000E+02    7.61269000E-02 
S    1    1.000000
   4.44553000E+01    2.60801000E-01 
S    1    1.000000
   1.30290000E+01    6.16462000E-01 
S    1    1.000000
   1.82773000E+00    2.21006000E-01 
SP   3    1.000000
   2.09642000E+01    1.14660000E-01   4.02487000E-02 
   4.80331000E+00    9.19999000E-01   2.37594000E-01 
   1.45933000E+00   -3.03068000E-03   8.15854000E-01 
SP   1    1.000000
   4.83456000E-01    1.00000000E+00   1.00000000E+00 
SP   1    1.000000
   1.45585000E-01    1.00000000E+00   1.00000000E+00 
SP   1    1.000000
   4.38000000E-02    1.00000000E+00   1.00000000E+00 
SP   1    1.000000
   1.31927711E-02    1.00000000E+00   1.00000000E+00 
D    1    1.000000
   6.26000000E-01    1.00000000E+00 
****
H    0
S    3    1.000000
   3.38650000E+01    2.54938000E-02 
   5.09479000E+00    1.90373000E-01 
   1.15879000E+00    8.52161000E-01 
S    1    1.000000
   3.25840000E-01    1.00000000E+00 
S    1    1.000000
   1.02741000E-01    1.00000000E+00 
S    1    1.000000
   3.60000000E-02    1.00000000E+00 
P    1    1.000000
   7.50000000E-01    1.00000000E+00 
****
$end
-----------------------------------------------------------------------
 There are 116 shells and 276 basis functions
 WARNING: the default MEM_TOTAL is adjusted according to given MEM_STATIC!
 Total memory of 40192 MB is distributed as follows: 
   MEM_STATIC is set to 192 MB
   QALLOC/CCMAN JOB total memory use is  40000 MB
 Warning: actual memory use might exceed 40192 MB

 Total QAlloc Memory Limit  40192 MB
 Mega-Array Size       188 MB
 MEM_STATIC part       192 MB

                       Distance Matrix (Angstroms)
             C (  1)   H (  2)   H (  3)   H (  4)   C (  5)   O (  6)
   H (  2)  2.074719
   H (  3)  1.088648  2.404363
   H (  4)  3.844805  4.062137  4.929358
   C (  5)  2.499433  2.039371  3.453267  2.043286
   O (  6)  3.559414  2.380246  4.383159  2.584878  1.227506
   C (  7)  2.527754  3.810142  3.543961  2.111799  2.491989  3.647202
   O (  8)  3.717828  5.053606  4.673434  2.467877  3.569118  4.614881
   N (  9)  2.830690  3.226233  3.915510  1.014116  1.359463  2.320547
   N ( 10)  1.357122  1.019418  2.107649  3.278922  1.430325  2.276918
   C ( 11)  1.479015  3.346014  2.297271  3.342886  2.861501  4.084810
   H ( 12)  2.232188  4.270492  2.667173  4.253493  3.951339  5.174582
             C (  7)   O (  8)   N (  9)   N ( 10)   C ( 11)
   O (  8)  1.253104
   N (  9)  1.449505  2.294439
   N ( 10)  2.794171  4.041319  2.351185
   C ( 11)  1.419856  2.401040  2.436525  2.394437
   H ( 12)  2.166012  2.711223  3.430584  3.387691  1.089899

 A cutoff of  1.0D-14 yielded   5420 shell pairs
 There are     35693 function pairs (     37863 Cartesian)
 Smallest overlap matrix eigenvalue = 3.44E-07
 Linear dependence detected in AO basis
 Tighter screening thresholds may be required for diffuse basis sets
 Use S2THRESH > 14 and THRESH = 14 in case of SCF convergence issues
 Number of orthogonalized atomic orbitals = 275
 Maximum deviation from orthogonality = 2.562E-10

 Scale SEOQF with 1.000000e-01/1.000000e-01/1.000000e-01

 Standard Electronic Orientation quadrupole field applied
 Nucleus-field energy     =     0.0000000101 hartrees
 Guess MOs from SCF MO coefficient file

 -----------------------------------------------------------------------
  General SCF calculation program by
  Eric Jon Sundstrom, Paul Horn, Yuezhi Mao, Dmitri Zuev, Alec White,
  David Stuck, Shaama M.S., Shane Yost, Joonho Lee, David Small,
  Daniel Levine, Susi Lehtola, Hugh Burton, Evgeny Epifanovsky
 -----------------------------------------------------------------------
 Hartree-Fock
 using 4 threads for integral computing
 -------------------------------------------------------
 OpenMP Integral computing Module                
 Release: version 2.0, May 2017, Q-Chem Inc. Pleasanton 
 -------------------------------------------------------
 A unrestricted SCF calculation will be
 performed using DIIS
 SCF converges when DIIS error is below 1.0e-08
 ---------------------------------------
  Cycle       Energy         DIIS error
 ---------------------------------------
Maximum Overlap Method Active
 MOM overlap:    29.9 / 30
Maximum Overlap Method Active
 MOM overlap:    28.0 / 28
    1    -412.2846968530      8.88e-04  
Maximum Overlap Method Active
 MOM overlap:    29.99 / 30
Maximum Overlap Method Active
 MOM overlap:    28.00 / 28
    2    -412.3418076638      4.60e-04  
Maximum Overlap Method Active
 MOM overlap:    29.99 / 30
Maximum Overlap Method Active
 MOM overlap:    28.00 / 28
    3    -412.3564108296      1.88e-04  
Maximum Overlap Method Active
 MOM overlap:    29.99 / 30
Maximum Overlap Method Active
 MOM overlap:    28.00 / 28
    4    -412.3638562975      1.42e-04  
Maximum Overlap Method Active
 MOM overlap:    30.00 / 30
Maximum Overlap Method Active
 MOM overlap:    28.00 / 28
    5    -412.3681650104      8.65e-05  
Maximum Overlap Method Active
 MOM overlap:    30.00 / 30
Maximum Overlap Method Active
 MOM overlap:    28.00 / 28
    6    -412.3705769129      6.63e-05  
Maximum Overlap Method Active
 MOM overlap:    30.00 / 30
Maximum Overlap Method Active
 MOM overlap:    28.00 / 28
    7    -412.3718046649      5.34e-05  
Maximum Overlap Method Active
 MOM overlap:    30.00 / 30
Maximum Overlap Method Active
 MOM overlap:    28.00 / 28
    8    -412.3731769817      4.19e-05  
Maximum Overlap Method Active
 MOM overlap:    30.00 / 30
Maximum Overlap Method Active
 MOM overlap:    28.00 / 28
    9    -412.3742965085      2.43e-05  
Maximum Overlap Method Active
 MOM overlap:    30.00 / 30
Maximum Overlap Method Active
 MOM overlap:    28.00 / 28
   10    -412.3746546924      1.04e-05  
Maximum Overlap Method Active
 MOM overlap:    30.00 / 30
Maximum Overlap Method Active
 MOM overlap:    28.00 / 28
   11    -412.3746907591      5.92e-06  
Maximum Overlap Method Active
 MOM overlap:    30.00 / 30
Maximum Overlap Method Active
 MOM overlap:    28.00 / 28
   12    -412.3747043701      4.23e-06  
Maximum Overlap Method Active
 MOM overlap:    30.00 / 30
Maximum Overlap Method Active
 MOM overlap:    28.00 / 28
   13    -412.3747117573      3.32e-06  
Maximum Overlap Method Active
 MOM overlap:    30.00 / 30
Maximum Overlap Method Active
 MOM overlap:    28.00 / 28
   14    -412.3747174890      2.62e-06  
Maximum Overlap Method Active
 MOM overlap:    30.00 / 30
Maximum Overlap Method Active
 MOM overlap:    28.00 / 28
   15    -412.3747229168      1.76e-06  
Maximum Overlap Method Active
 MOM overlap:    30.00 / 30
Maximum Overlap Method Active
 MOM overlap:    28.00 / 28
   16    -412.3747253498      1.05e-06  
Maximum Overlap Method Active
 MOM overlap:    30.00 / 30
Maximum Overlap Method Active
 MOM overlap:    28.00 / 28
   17    -412.3747261315      7.37e-07  
Maximum Overlap Method Active
 MOM overlap:    30.00 / 30
Maximum Overlap Method Active
 MOM overlap:    28.00 / 28
   18    -412.3747264985      6.59e-07  
Maximum Overlap Method Active
 MOM overlap:    30.00 / 30
Maximum Overlap Method Active
 MOM overlap:    28.00 / 28
   19    -412.3747267335      5.35e-07  
Maximum Overlap Method Active
 MOM overlap:    30.00 / 30
Maximum Overlap Method Active
 MOM overlap:    28.00 / 28
   20    -412.3747269760      4.20e-07  
Maximum Overlap Method Active
 MOM overlap:    30.00 / 30
Maximum Overlap Method Active
 MOM overlap:    28.00 / 28
   21    -412.3747271442      3.50e-07  
Maximum Overlap Method Active
 MOM overlap:    30.00 / 30
Maximum Overlap Method Active
 MOM overlap:    28.00 / 28
   22    -412.3747272610      2.43e-07  
Maximum Overlap Method Active
 MOM overlap:    30.00 / 30
Maximum Overlap Method Active
 MOM overlap:    28.00 / 28
   23    -412.3747273368      1.49e-07  
Maximum Overlap Method Active
 MOM overlap:    30.00 / 30
Maximum Overlap Method Active
 MOM overlap:    28.00 / 28
   24    -412.3747273693      5.93e-08  
Maximum Overlap Method Active
 MOM overlap:    30.00 / 30
Maximum Overlap Method Active
 MOM overlap:    28.00 / 28
   25    -412.3747273717      2.69e-08  
Maximum Overlap Method Active
 MOM overlap:    30.00 / 30
Maximum Overlap Method Active
 MOM overlap:    28.00 / 28
   26    -412.3747273719      1.55e-08  
   27    -412.3747273720      8.67e-09  Convergence criterion met
Maximum Overlap Method Active
 MOM overlap:    30.00 / 30
Maximum Overlap Method Active
 MOM overlap:    28.00 / 28
Maximum Overlap Method Active
 MOM overlap:    30.00 / 30
Maximum Overlap Method Active
 MOM overlap:    28.00 / 28
 ---------------------------------------
 SCF time:   CPU 301.34s  wall 81.00s 
<S^2> =          2.291536933
 SCF   energy in the final basis set =     -412.3747273720
 Total energy in the final basis set =     -412.3747273720


 ------------------------------------------------------------------------------

   CCMAN2: suite of methods based on coupled cluster
           and equation of motion theories.

   Components:
   * libvmm-1.3-trunk
     by Evgeny Epifanovsky, Ilya Kaliman.
   * libtensor-2.5-trunk
     by Evgeny Epifanovsky, Michael Wormit, Dmitry Zuev, Sam Manzer, 
        Ilya Kaliman.
   * libcc-2.5-trunk
     by Evgeny Epifanovsky, Arik Landau, Tomasz Kus, Kirill Khistyaev, 
        Dmitry Zuev, Prashant Manohar, Xintian Feng, Anna Krylov, 
        Matthew Goldey, Alec White, Thomas Jagau, Kaushik Nanda, 
        Anastasia Gunina, Alexander Kunitsa, Joonho Lee.

   CCMAN original authors:
   Anna I. Krylov, C. David Sherrill, Steven R. Gwaltney,
   Edward F. C. Byrd (2000)
   Sergey V. Levchenko, Lyudmila V. Slipchenko, Tao Wang,
   Ana-Maria C. Cristian (2003)
   Piotr A. Pieniazek, C. Melania Oana, Evgeny Epifanovsky (2007)
   Prashant Manohar (2009)

 ------------------------------------------------------------------------------


 Allocating and initializing 40000MB of RAM...
 Calculation will run on 4 cores.


 Alpha MOs, Unrestricted
 -- Occupied --                  
-20.693 -20.623 -15.772 -15.700 -11.497 -11.457 -11.456 -11.400
  1 A'    2 A'    3 A'    4 A'    5 A'    6 A'    7 A'    8 A'                 
 -1.527  -1.501  -1.402  -1.326  -1.184  -1.026  -0.972  -0.892
  9 A'   10 A'   11 A'   12 A'   13 A'   14 A'   15 A'   16 A'                 
 -0.847  -0.803  -0.777  -0.752  -0.728  -0.708  -0.705  -0.692
 17 A'   18 A'   19 A'    1 A"   20 A'    2 A"   21 A'   22 A'                 
 -0.614  -0.593  -0.553  -0.544  -0.501  -0.119
  3 A"   23 A'    4 A"   24 A'    5 A"   25 A'                                 
 -- Virtual --                   
 -0.007   0.003   0.009   0.012   0.023   0.024   0.028   0.031
  6 A"   26 A'   27 A'    7 A"   28 A'   29 A'   30 A'    8 A"                 
  0.032   0.038   0.042   0.045   0.045   0.049   0.051   0.054
  9 A"   31 A'   32 A'   33 A'   34 A'   35 A'   10 A"   36 A'                 
  0.060   0.061   0.066   0.067   0.072   0.073   0.076   0.079
 11 A"   37 A'   38 A'   39 A'   12 A"   40 A'   13 A"   41 A'                 
  0.089   0.100   0.104   0.105   0.106   0.112   0.117   0.124
 14 A"   42 A'   43 A'   44 A'   15 A"   45 A'   46 A'   47 A'                 
  0.132   0.137   0.138   0.141   0.146   0.158   0.167   0.170
 48 A'   49 A'   50 A'   51 A'   16 A"   17 A"   52 A'   53 A'                 
  0.172   0.192   0.195   0.201   0.211   0.215   0.221   0.226
 18 A"   54 A'   55 A'   56 A'   19 A"   57 A'   20 A"   58 A'                 
  0.233   0.240   0.241   0.247   0.248   0.261   0.273   0.292
 59 A'   60 A'   61 A'   62 A'   21 A"   63 A'   64 A'   65 A'                 
  0.295   0.300   0.303   0.336   0.341   0.351   0.358   0.369
 22 A"   66 A'   67 A'   68 A'   23 A"   69 A'   70 A'   71 A'                 
  0.380   0.382   0.393   0.400   0.404   0.418   0.431   0.436
 72 A'   24 A"   73 A'   74 A'   75 A'   76 A'   77 A'   78 A'                 
  0.446   0.464   0.499   0.508   0.557   0.565   0.576   0.633
 79 A'   80 A'   81 A'   82 A'   83 A'   84 A'   85 A'   86 A'                 
  0.664   0.672   0.693   0.711   0.718   0.728   0.742   0.769
 25 A"   87 A'   88 A'   26 A"   89 A'   27 A"   90 A'   28 A"                 
  0.812   0.824   0.860   0.887   0.895   0.903   0.924   0.949
 91 A'   92 A'   93 A'   94 A'   95 A'   96 A'   97 A'   98 A'                 
  0.952   0.965   0.998   1.021   1.028   1.034   1.086   1.110
 99 A'   29 A"  100 A'  101 A'   30 A"  102 A'  103 A'   31 A"                 
  1.161   1.184   1.204   1.218   1.258   1.298   1.298   1.339
 32 A"  104 A'  105 A'  106 A'   33 A"  107 A'   34 A"   35 A"                 
  1.344   1.345   1.380   1.391   1.426   1.448   1.474   1.478
 36 A"  108 A'   37 A"  109 A'  110 A'   38 A"  111 A'  112 A'                 
  1.532   1.628   1.668   1.710   1.723   1.800   1.804   1.816
113 A'  114 A'  115 A'   39 A"  116 A'   40 A"  117 A'  118 A'                 
  1.847   1.853   1.890   1.922   1.939   1.967   2.037   2.053
119 A'   41 A"  120 A'  121 A'   42 A"  122 A'  123 A'  124 A'                 
  2.099   2.110   2.134   2.189   2.189   2.209   2.271   2.396
 43 A"  125 A'  126 A'  127 A'   44 A"  128 A'  129 A'  130 A'                 
  2.455   2.498   2.559   2.574   2.626   2.665   2.713   2.737
 45 A"  131 A'  132 A'   46 A"   47 A"  133 A'   48 A"  134 A'                 
  2.840   2.871   2.906   2.952   2.967   2.988   3.038   3.071
135 A'  136 A'  137 A'  138 A'   49 A"  139 A'  140 A'   50 A"                 
  3.100   3.103   3.122   3.159   3.191   3.200   3.224   3.225
141 A'   51 A"   52 A"  142 A'  143 A'   53 A"  144 A'   54 A"                 
  3.266   3.417   3.463   3.586   3.609   3.667   3.676   3.733
145 A'  146 A'  147 A'   55 A"  148 A'  149 A'   56 A"  150 A'                 
  3.791   3.809   3.893   3.933   4.038   4.130   4.188   4.284
151 A'  152 A'  153 A'  154 A'  155 A'  156 A'   57 A"   58 A"                 
  4.309   4.371   4.493   4.913   5.024   5.176   5.320   5.427
157 A'  158 A'  159 A'  160 A'  161 A'  162 A'  163 A'  164 A'                 
  5.456   5.553   5.570   5.625   5.642   5.707   5.768   6.302
 59 A"   60 A"  165 A'  166 A'  167 A'  168 A'  169 A'  170 A'                 
  6.366   7.521   7.632   9.702   9.820  20.530  20.598  20.618
171 A'  172 A'  173 A'  174 A'  175 A'  176 A'  177 A'  178 A'                 
 20.738  30.043  30.149  40.726  40.826  80.091  80.136  80.160
179 A'  180 A'  181 A'  182 A'  183 A'  184 A'  185 A'  186 A'                 
 80.269 116.170 116.266 159.084 159.170 321.922 321.954 321.980
187 A'  188 A'  189 A'  190 A'  191 A'  192 A'  193 A'  194 A'                 
322.080 460.277 460.363 631.791 631.8681431.4801431.5051431.530
195 A'  196 A'  197 A'  198 A'  199 A'  200 A'  201 A'  202 A'                 
*******2012.7572012.8362759.1922759.2648749.7048749.7288749.748
203 A'  204 A'  205 A'  206 A'  207 A'  208 A'  209 A'  210 A'                 
***************************************
211 A'  212 A'  213 A'  214 A'  215 A'                                         

 Beta MOs, Unrestricted
 -- Occupied --                  
-20.666 -20.619 -15.756 -15.702 -11.499 -11.469 -11.462 -11.381
  1 A'    2 A'    3 A'    4 A'    5 A'    6 A'    7 A'    8 A'                 
 -1.499  -1.462  -1.377  -1.316  -1.136  -1.025  -0.967  -0.876
  9 A'   10 A'   11 A'   12 A'   13 A'   14 A'   15 A'   16 A'                 
 -0.841  -0.798  -0.756  -0.719  -0.719  -0.695  -0.682  -0.608
 17 A'   18 A'   19 A'   20 A'    1 A"   21 A'   22 A'    2 A"                 
 -0.568  -0.561  -0.534  -0.463
 23 A'    3 A"   24 A'    4 A"                                                 
 -- Virtual --                   
 -0.100   0.003   0.013   0.015   0.019   0.024   0.028   0.031
  5 A"   25 A'   26 A'    6 A"   27 A'    7 A"   28 A'   29 A'                 
  0.033   0.034   0.038   0.045   0.045   0.049   0.051   0.052
  8 A"   30 A'    9 A"   31 A'   32 A'   33 A'   34 A'   35 A'                 
  0.056   0.063   0.063   0.067   0.068   0.075   0.080   0.082
 10 A"   36 A'   11 A"   37 A'   38 A'   39 A'   12 A"   40 A'                 
  0.086   0.087   0.099   0.103   0.109   0.110   0.115   0.119
 13 A"   41 A'   14 A"   42 A'   43 A'   44 A'   45 A'   46 A'                 
  0.122   0.131   0.137   0.141   0.142   0.152   0.158   0.172
 15 A"   47 A'   48 A'   49 A'   50 A'   51 A'   16 A"   52 A'                 
  0.176   0.179   0.181   0.198   0.206   0.209   0.214   0.219
 17 A"   18 A"   53 A'   54 A'   55 A'   56 A'   19 A"   57 A'                 
  0.228   0.236   0.237   0.243   0.246   0.253   0.255   0.264
 58 A'   20 A"   59 A'   60 A'   61 A'   62 A'   21 A"   63 A'                 
  0.281   0.296   0.306   0.307   0.311   0.337   0.352   0.362
 64 A'   65 A'   66 A'   22 A"   67 A'   68 A'   69 A'   70 A'                 
  0.374   0.375   0.385   0.389   0.396   0.402   0.407   0.422
 23 A"   71 A'   72 A'   24 A"   73 A'   74 A'   75 A'   76 A'                 
  0.436   0.437   0.449   0.466   0.502   0.512   0.561   0.569
 77 A'   78 A'   79 A'   80 A'   81 A'   82 A'   83 A'   84 A'                 
  0.585   0.634   0.677   0.687   0.696   0.702   0.723   0.743
 85 A'   86 A'   87 A'   25 A"   88 A'   26 A"   89 A'   27 A"                 
  0.748   0.757   0.817   0.828   0.867   0.890   0.899   0.906
 90 A'   28 A"   91 A'   92 A'   93 A'   94 A'   95 A'   96 A'                 
  0.927   0.951   0.959   0.993   1.006   1.023   1.034   1.035
 97 A'   98 A'   99 A'   29 A"  100 A'  101 A'  102 A'   30 A"                 
  1.089   1.130   1.175   1.185   1.210   1.220   1.293   1.301
103 A'   31 A"   32 A"  104 A'  105 A'  106 A'   33 A"  107 A'                 
  1.332   1.347   1.352   1.358   1.392   1.397   1.435   1.443
 34 A"   35 A"  108 A'   36 A"   37 A"  109 A'  110 A'   38 A"                 
  1.478   1.484   1.536   1.633   1.674   1.715   1.725   1.802
111 A'  112 A'  113 A'  114 A'  115 A'   39 A"  116 A'   40 A"                 
  1.805   1.827   1.848   1.850   1.893   1.928   1.944   1.966
117 A'  118 A'  119 A'   41 A"  120 A'  121 A'   42 A"  122 A'                 
  2.037   2.053   2.110   2.118   2.140   2.200   2.207   2.211
123 A'  124 A'  125 A'   43 A"  126 A'  127 A'   44 A"  128 A'                 
  2.269   2.400   2.464   2.502   2.563   2.580   2.639   2.669
129 A'  130 A'   45 A"  131 A'  132 A'   46 A"   47 A"  133 A'                 
  2.726   2.739   2.844   2.882   2.909   2.962   2.992   2.993
 48 A"  134 A'  135 A'  136 A'  137 A'  138 A'   49 A"  139 A'                 
  3.042   3.060   3.105   3.106   3.166   3.173   3.215   3.225
140 A'   50 A"   51 A"  141 A'   52 A"  142 A'  143 A'   53 A"                 
  3.247   3.249   3.273   3.422   3.468   3.616   3.635   3.672
144 A'   54 A"  145 A'  146 A'  147 A'  148 A'   55 A"  149 A'                 
  3.683   3.738   3.793   3.813   3.895   3.937   4.041   4.140
 56 A"  150 A'  151 A'  152 A'  153 A'  154 A'  155 A'  156 A'                 
  4.226   4.283   4.318   4.375   4.500   4.915   5.028   5.180
 57 A"   58 A"  157 A'  158 A'  159 A'  160 A'  161 A'  162 A'                 
  5.326   5.426   5.540   5.565   5.572   5.627   5.656   5.713
163 A'  164 A'   59 A"   60 A"  165 A'  166 A'  167 A'  168 A'                 
  5.769   6.313   6.368   7.536   7.632   9.729   9.827  20.532
169 A'  170 A'  171 A'  172 A'  173 A'  174 A'  175 A'  176 A'                 
 20.598  20.614  20.740  30.052  30.149  40.740  40.829  80.091
177 A'  178 A'  179 A'  180 A'  181 A'  182 A'  183 A'  184 A'                 
 80.136  80.159  80.270 116.174 116.266 159.088 159.171 321.921
185 A'  186 A'  187 A'  188 A'  189 A'  190 A'  191 A'  192 A'                 
321.953 321.979 322.080 460.278 460.363 631.792 631.8681431.480
193 A'  194 A'  195 A'  196 A'  197 A'  198 A'  199 A'  200 A'                 
*******1431.5301431.6232012.7572012.8362759.1922759.2648749.704
201 A'  202 A'  203 A'  204 A'  205 A'  206 A'  207 A'  208 A'                 
*******8749.7488749.832********************************
209 A'  210 A'  211 A'  212 A'  213 A'  214 A'  215 A'                         

 Occupation and symmetry of molecular orbitals

 Point group: Cs (2 irreducible representations).

                           A'   A"    All 
 ------------------------------------------
 All molecular orbitals:
  - Alpha                  215  60    275 
  - Beta                   215  60    275 
 ------------------------------------------
 Alpha orbitals:
  - Frozen occupied        4    0     4   
  - Active occupied        21   5     26  
  - Active virtual         190  55    245 
  - Frozen virtual         0    0     0   
 ------------------------------------------
 Beta orbitals:
  - Frozen occupied        4    0     4   
  - Active occupied        20   4     24  
  - Active virtual         191  56    247 
  - Frozen virtual         0    0     0   
 ------------------------------------------

 Import integrals:   CPU 0.00 s  wall 0.00 s

 Import integrals:   CPU 1824.33 s  wall 768.21 s

 MP2 amplitudes:   CPU 3.16 s  wall 1.34 s

Running a double precision version
           CCSD T amplitudes will be solved using DIIS.

           Start     Size      MaxIter   EConv     TConv     
           3         7         100       1.00e-06  1.00e-04  
 ------------------------------------------------------------------------------
           Energy (a.u.)   Ediff      Tdiff       Comment
 ------------------------------------------------------------------------------
          -413.69848960                           
     1    -413.68407225   1.44e-02   9.84e-01     Step took 02.59.
     2    -413.73215955   4.81e-02   1.30e-01     
     3    -413.73149519   6.64e-04   5.43e-02     
     4    -413.73822134   6.73e-03   2.18e-02     Switched to DIIS steps.
     5    -413.74380321   5.58e-03   2.34e-02     
     6    -413.74520723   1.40e-03   8.62e-03     
     7    -413.74583560   6.28e-04   5.26e-03     
     8    -413.74605074   2.15e-04   2.45e-03     
     9    -413.74624983   1.99e-04   2.01e-03     
    10    -413.74628832   3.85e-05   1.20e-03     
    11    -413.74631075   2.24e-05   6.07e-04     
    12    -413.74633029   1.95e-05   4.77e-04     
    13    -413.74632913   1.16e-06   1.80e-04     
    14    -413.74633398   4.85e-06   1.39e-04     
    15    -413.74632935   4.63e-06   7.60e-05     
    16    -413.74632667   2.68e-06   4.77e-05     
    17    -413.74632410   2.58e-06   3.18e-05     
    18    -413.74632247   1.62e-06   1.74e-05     
    19    -413.74632174   7.38e-07   1.32e-05     
 ------------------------------------------------------------------------------
          -413.74632174                           CCSD T converged.

End of double precision
 SCF energy                 = -412.37472737
 MP2 energy                 = -413.69848960
 CCSD correlation energy    =   -1.37159436
 CCSD total energy          = -413.74632174

 CCSD  T1^2 = 0.1233  T2^2 = 0.4395  Leading amplitudes:

 Amplitude    Orbitals with energies
 -0.0861       3 (A") A                  ->    6 (A") A                   
              -0.6135                         -0.0073                     
  0.0853       2 (A") A                  ->    6 (A") A                   
              -0.7081                         -0.0073                     
 -0.0845       2 (A") A                  ->    13 (A") A                  
              -0.7081                          0.0756                     
 -0.0829       4 (A") B                  ->    7 (A") B                   
              -0.4629                          0.0237                     

 Amplitude    Orbitals with energies
  0.0355       3 (A") A      3 (A") B    ->    6 (A") A      5 (A") B     
              -0.6135       -0.5611           -0.0073       -0.1004       
 -0.0355       3 (A") A      3 (A") B    ->    5 (A") B      6 (A") A     
              -0.6135       -0.5611           -0.1004       -0.0073       
 -0.0355       3 (A") B      3 (A") A    ->    6 (A") A      5 (A") B     
              -0.5611       -0.6135           -0.0073       -0.1004       
  0.0355       3 (A") B      3 (A") A    ->    5 (A") B      6 (A") A     
              -0.5611       -0.6135           -0.1004       -0.0073       

 Computing CCSD intermediates for later calculations in double precision
 Finished.

Running a double precision version
           CCSD Lambda amplitudes will be solved using DIIS.
           Start     Size      MaxIter   EConv     LConv     
           3         7         100       1.00e-06  1.00e-04  
 ------------------------------------------------------------------------------
            Enorm      Ldiff       Comment
 ------------------------------------------------------------------------------
     1     8.90e-02   5.13e-02     
     2     2.99e-02   7.37e-03     
     3     1.61e-02   1.05e-03     
     4     8.76e-03   1.38e-03     Switched to DIIS steps.
     5     4.03e-03   7.98e-04     
     6     2.62e-03   3.80e-06     
     7     1.53e-03   2.27e-04     
     8     9.82e-04   3.31e-04     
     9     5.55e-04   3.66e-04     
    10     3.51e-04   2.03e-04     
    11     2.05e-04   1.43e-04     
    12     9.74e-05   8.47e-05     
    13     5.62e-05   2.19e-05     
    14     2.89e-05   6.98e-06     
    15     1.68e-05   2.63e-07     
    16     1.06e-05   1.16e-06     
    17     6.50e-06   1.24e-06     
    18     4.26e-06   1.07e-06     
    19     2.87e-06   8.95e-07     
    20     2.01e-06   6.52e-07     
    21     1.45e-06   5.65e-07     
    22     9.52e-07   5.15e-07     
 ------------------------------------------------------------------------------
                                   CCSD Lambda converged.

 CCSD calculation:   CPU 18155.74 s  wall 20442.28 s

        Solving for CVS-EOMIP-CCSD A' transitions.

Running a double precision version
      CVS-EOMIP-CCSD/MP2 right amplitudes will be solved using Davidson.
        Amplitudes will be solved using shifted  algorithm.
     Hard-coded thresholds: 
     LinDepThresh=1.00e-15  NormThresh=1.00e-06  ReorthogonThresh=1.00e-02

      Roots     MaxVec    MaxIter   Precond   Conv      Shift    
      4         120       60        1         1.00e-05  1.45e+01  
 ------------------------------------------------------------------------------
      Iter ConvRoots NVecs ResNorm Current eigenvalues (eV)
 ------------------------------------------------------------------------------
      0    0      4     1.70e+00   426.9348   428.7463   561.5481   562.5934   
      1    0      8     4.34e+00   423.7066   425.5700   558.0593   559.1631   
      2    0      12    4.99e+00   409.9251   411.5643   478.6825   480.5157   
      3    0      16    9.76e-01   409.4001   410.9634   466.8316   467.6316   
      4    0      20    3.36e+00   409.3895   410.9327   455.3828   460.2282   
      5    1      24    4.12e-01   409.3875*  410.9241   441.4275   447.2694   
      6    2      27    3.32e-01   409.3874*  410.9235*  435.8231   437.5820   
      7    2      29    4.87e-02   409.3874*  410.9235*  433.8110   434.9862   
      8    2      31    2.14e-02   409.3874*  410.9235*  428.2716   432.8073   
      9    2      33    1.95e-02   409.3874*  410.9235*  425.1282   431.0199   
      10   2      35    1.35e-02   409.3874*  410.9235*  423.7307   428.9730   
      11   2      37    7.13e-03   409.3874*  410.9236*  423.0714   427.0678   
      12   2      39    3.15e-03   409.3874*  410.9236*  422.8891   425.9062   
      13   2      41    2.37e-03   409.3874*  410.9236*  422.8495   425.4189   
      14   2      43    1.39e-03   409.3874*  410.9235*  422.8300   425.0638   
      15   2      45    2.33e-03   409.3874*  410.9235*  422.8143   424.6450   
      16   2      47    8.93e-03   409.3874*  410.9235*  422.8068   423.5296   
      17   2      49    3.87e-03   409.3874*  410.9235*  422.2253   422.8052   
      18   3      51    1.07e-03   409.3874*  410.9235*  421.7515   422.8043*  
      19   3      52    7.70e-04   409.3874*  410.9235*  421.5560   422.8042*  
      20   3      53    5.73e-04   409.3874*  410.9235*  421.4226   422.8042*  
Found complex roots...
      21   3      54    1.68e-04   409.3874*  410.9235*  421.3442   422.8042*  
      22   3      55    4.44e-05   409.3874*  410.9235*  421.3243   422.8042*  
      23   3      56    4.75e-05   409.3874*  410.9235*  421.3172   422.8042*  
      24   3      57    3.54e-05   409.3874*  410.9234*  421.3102   422.8042*  
      25   3      58    1.83e-05   409.3873*  410.9234*  421.3057   422.8042*  
      26   2      59    8.13e-04   409.3873*  410.9235*  421.3035   422.8012   
      27   2      61    7.76e-04   409.3873*  410.9234*  421.3020   422.6234   
      28   2      63    5.81e-04   409.3874*  410.9234*  421.3011   422.4846   
      29   3      65    4.51e-04   409.3875*  410.9234*  421.3006*  422.3886   
      30   3      66    2.51e-04   409.3875*  410.9234*  421.3004*  422.3309   
      31   3      67    1.32e-04   409.3875*  410.9234*  421.3003*  422.2955   
      32   3      68    2.35e-04   409.3875*  410.9234*  421.3002*  422.2785   
      33   2      69    7.84e-03   409.3875*  410.9234*  421.3002   422.2539   
      34   3      71    6.62e-05   409.3875*  410.9234*  421.3002*  422.2769   
      35   3      72    2.23e-05   409.3875*  410.9234*  421.3002*  422.2735   
      36   3      73    8.43e-05   409.3875*  410.9234*  421.3002*  422.2715   
      37   2      74    1.15e+00   409.3875*  410.9234*  419.8996   421.3003   
      38   3      76    1.15e-05   409.3875*  410.9234*  421.3002*  422.2712   
      39   3      77    9.80e-06   409.3875*  410.9234*  421.3002*  422.2707   
      40   3      78    1.58e-04   409.3875*  410.9234*  421.3002*  422.2702   
      41   4      79    4.10e-06   409.3875*  410.9234*  421.3002*  422.2707*  

     Davidson procedure converged

 EOMIP transition 1/A'
 Total energy = -398.70160721 a.u.  Excitation energy = 409.3875 eV.
 R1^2 = 0.8975  R2_CCVV^2 = 0.0013  R2_COVV^2 = 0.1018  Res^2 = 8.04e-06
 Conv-d = yes

 Amplitude    Transitions between orbitals
  0.9474       4 (A') A                  ->    infty        
  0.0001       3 (A') A                  ->    infty        

              Summary of significant orbitals:

               Number  Type             Irrep      Energy
               3       Occ  Alpha       3 (A')    -15.7724
               4       Occ  Alpha       4 (A')    -15.7003


 EOMIP transition 2/A'
 Total energy = -398.64516257 a.u.  Excitation energy = 410.9234 eV.
 R1^2 = 0.8871  R2_CCVV^2 = 0.0013  R2_COVV^2 = 0.1122  Res^2 = 1.81e-06
 Conv-d = yes

 Amplitude    Transitions between orbitals
 -0.9419       3 (A') A                  ->    infty        
  0.0002       4 (A') A                  ->    infty        

              Summary of significant orbitals:

               Number  Type             Irrep      Energy
               3       Occ  Alpha       3 (A')    -15.7724
               4       Occ  Alpha       4 (A')    -15.7003


 EOMIP transition 3/A'
 Total energy = -398.26382335 a.u.  Excitation energy = 421.3002 eV.
 R1^2 = 0.0000  R2_CCVV^2 = 0.0000  R2_COVV^2 = 1.0000  Res^2 = 1.94e-08
 Conv-d = yes

 Amplitude    Transitions between orbitals
  0.3183       4 (A') B      25 (A') A   ->    66 (A') B     
  0.2976       4 (A') A      25 (A') A   ->    68 (A') A     
 -0.2901       4 (A') A      25 (A') A   ->    49 (A') A     
  0.2897       4 (A') A      25 (A') A   ->    67 (A') A     
 -0.2866       4 (A') B      25 (A') A   ->    68 (A') B     
 -0.2467       4 (A') B      25 (A') A   ->    48 (A') B     
  0.2441       4 (A') B      25 (A') A   ->    64 (A') B     
  0.2339       4 (A') B      25 (A') A   ->    67 (A') B     
  0.2259       4 (A') A      25 (A') A   ->    92 (A') A     
 -0.2166       4 (A') A      25 (A') A   ->    45 (A') A     
  0.2138       4 (A') B      25 (A') A   ->    92 (A') B     
  0.2049       4 (A') B      25 (A') A   ->    31 (A') B     
  0.2002       4 (A') B      25 (A') A   ->    45 (A') B     
  0.1986       4 (A') A      25 (A') A   ->    96 (A') A     
  0.1931       4 (A') B      25 (A') A   ->    96 (A') B     
  0.1918       4 (A') A      25 (A') A   ->    65 (A') A     
 -0.1913       4 (A') B      25 (A') A   ->    62 (A') B     
  0.1857       4 (A') A      25 (A') A   ->    64 (A') A     
  0.1839       4 (A') A      25 (A') A   ->    66 (A') A     
  0.1747       4 (A') A      25 (A') A   ->    84 (A') A     
  0.1692       4 (A') B      25 (A') A   ->    47 (A') B     
 -0.1599       4 (A') A      25 (A') A   ->    32 (A') A     
  0.1571       4 (A') B      25 (A') A   ->    84 (A') B     
 -0.1556       4 (A') A      25 (A') A   ->    74 (A') A     
 -0.1555       4 (A') B      25 (A') A   ->    44 (A') B     
 -0.1539       4 (A') B      25 (A') A   ->    81 (A') B     
 -0.1485       4 (A') A      25 (A') A   ->    62 (A') A     
 -0.1426       4 (A') A      25 (A') A   ->    33 (A') A     
 -0.1413       4 (A') A      25 (A') A   ->    81 (A') A     
 -0.1359       4 (A') B      25 (A') A   ->    73 (A') B     
  0.1338       4 (A') B      25 (A') A   ->    37 (A') B     
  0.1331       4 (A') A      25 (A') A   ->    107 (A') A    
  0.1314       4 (A') B      25 (A') A   ->    107 (A') B    
  0.1294       4 (A') B      25 (A') A   ->    25 (A') B     
  0.1293       4 (A') B      25 (A') A   ->    63 (A') B     
  0.1291       4 (A') B      25 (A') A   ->    32 (A') B     
  0.1288       4 (A') B      25 (A') A   ->    74 (A') B     
  0.1284       4 (A') A      25 (A') A   ->    26 (A') A     
 -0.1255       4 (A') B      25 (A') A   ->    26 (A') B     
 -0.1252       4 (A') B      25 (A') A   ->    97 (A') B     
 -0.1250       4 (A') A      25 (A') A   ->    27 (A') A     
 -0.1231       4 (A') A      25 (A') A   ->    39 (A') A     
  0.1193       4 (A') B      25 (A') A   ->    94 (A') B     
  0.1161       4 (A') B      25 (A') A   ->    65 (A') B     
  0.1126       4 (A') A      25 (A') A   ->    43 (A') A     
 -0.1123       4 (A') B      25 (A') A   ->    91 (A') B     
 -0.1020       4 (A') A      25 (A') A   ->    97 (A') A     
  0.1011       4 (A') B      25 (A') A   ->    87 (A') B     
 -0.1005       4 (A') A      25 (A') A   ->    105 (A') A    

              Summary of significant orbitals:

               Number  Type             Irrep      Energy
               4       Occ  Alpha       4 (A')    -15.7003
               4       Occ  Beta        4 (A')    -15.7017
               30      Occ  Alpha      25 (A')     -0.1186
               32      Vir  Alpha      26 (A')      0.0033
               33      Vir  Alpha      27 (A')      0.0089
               41      Vir  Alpha      32 (A')      0.0421
               42      Vir  Alpha      33 (A')      0.0450
               50      Vir  Alpha      39 (A')      0.0671
               57      Vir  Alpha      43 (A')      0.1039
               60      Vir  Alpha      45 (A')      0.1119
               64      Vir  Alpha      49 (A')      0.1374
               82      Vir  Alpha      62 (A')      0.2472
               85      Vir  Alpha      64 (A')      0.2732
               86      Vir  Alpha      65 (A')      0.2917
               88      Vir  Alpha      66 (A')      0.2998
               89      Vir  Alpha      67 (A')      0.3033
               90      Vir  Alpha      68 (A')      0.3365
               98      Vir  Alpha      74 (A')      0.4001
               105     Vir  Alpha      81 (A')      0.4992
               108     Vir  Alpha      84 (A')      0.5655
               120     Vir  Alpha      92 (A')      0.8237
               124     Vir  Alpha      96 (A')      0.9032
               125     Vir  Alpha      97 (A')      0.9243
               137     Vir  Alpha     105 (A')      1.2040
               140     Vir  Alpha     107 (A')      1.2980
               30      Vir  Beta       25 (A')      0.0029
               31      Vir  Beta       26 (A')      0.0134
               40      Vir  Beta       31 (A')      0.0448
               41      Vir  Beta       32 (A')      0.0453
               48      Vir  Beta       37 (A')      0.0667
               58      Vir  Beta       44 (A')      0.1098
               59      Vir  Beta       45 (A')      0.1153
               62      Vir  Beta       47 (A')      0.1314
               63      Vir  Beta       48 (A')      0.1372
               82      Vir  Beta       62 (A')      0.2530
               84      Vir  Beta       63 (A')      0.2638
[...]
211   6.6930e-15
212   3.3901e-16
213   -1.6912e-16
214   1.7474e-15
215   5.1282e-16
216   5.4831e-16
217   -2.0159e-15
218   5.2233e-17
219   -1.4441e-15
220   1.8971e-16
221   2.8839e-15
222   -4.9206e-16
223   7.8656e-16
224   1.6417e-15
225   -1.3620e-15
226   2.3353e-15
227   1.6069e-15
228   -1.6269e-15
229   3.3591e-16
230   3.1343e-16
231   7.7107e-16
232   -1.1978e-16
233   6.5685e-16
234   1.1947e-15
235   9.2095e-16
236   -4.7614e-16
237   -8.2989e-16
238   9.7857e-16
239   3.2818e-16
240   -2.8304e-16
241   1.1785e-15
242   -1.3703e-15
243   4.5068e-16
244   -1.6943e-16
245   6.2385e-16
246   8.5414e-16
247   -1.9771e-16
248   -1.7626e-15
249   -7.2532e-16
250   -3.8192e-16
251   -9.2380e-17
252   -9.1222e-18
253   4.2123e-17
254   3.4473e-16
255   1.4865e-16
256   1.6174e-16
257   2.5092e-16
258   -1.9865e-16
259   -6.8882e-17
260   -2.4836e-16
261   2.8124e-16
262   2.9119e-16
263   4.1850e-16
264   8.1016e-16
265   -3.1927e-16
266   -4.5724e-16
267   3.0689e-16
268   -2.0048e-16
269   -6.2113e-17
270   3.6575e-17
271   1.5020e-16
272   6.1534e-17
273   7.4543e-17
274   -4.4199e-16

Decomposition over AOs for the right alpha Dyson orbital:
-9.61148184e-10
5.93659982e-09
-6.67628860e-08
1.51480260e-07
-2.92345803e-06
-1.27216151e-05
7.35616476e-06
-2.56410229e-06
-5.88486941e-06
7.40434418e-16
1.52881826e-05
1.23357462e-05
2.45692486e-05
-9.85191378e-17
9.94199055e-05
2.14161848e-05
6.06008498e-05
1.28894341e-16
8.96007593e-04
-1.38230907e-05
8.03245154e-04
8.03078064e-15
4.89347475e-03
3.82650127e-04
4.88331668e-04
-6.50085286e-14
1.27664194e-06
2.05081117e-16
-4.32659733e-06
-4.87821072e-17
2.47548676e-06
5.20114939e-06
-1.62970892e-05
-1.56964260e-04
-3.20242081e-04
-1.63968446e-06
7.30763714e-07
1.14127458e-16
1.24559183e-06
1.20381554e-05
5.09357443e-05
7.14116724e-04
3.84609826e-07
3.57153396e-06
3.46096296e-16
2.29338581e-04
8.02342326e-05
2.97809775e-04
3.82764778e-04
-1.50682339e-05
-9.57346540e-05
2.95014595e-16
2.48158527e-08
1.88562722e-07
8.97711286e-07
2.78904511e-06
2.68554308e-06
-5.76077294e-05
-2.88355850e-06
5.58488890e-05
2.24490899e-05
3.09095669e-16
3.16500727e-04
3.03175649e-04
1.27993697e-04
3.33472008e-15
-2.99428922e-04
-1.94506403e-04
-1.05881123e-04
-2.35735470e-15
-1.15322608e-03
-6.62261484e-04
1.65506228e-04
1.14942024e-14
-1.38399507e-03
-1.28954161e-04
3.94824229e-04
3.70440491e-14
1.35757470e-04
4.06654607e-16
-2.04398023e-05
-6.00884812e-16
1.38841171e-04
5.37738626e-09
5.68742752e-08
1.66445464e-07
9.98162918e-07
-1.61381755e-06
-1.28810954e-05
1.28765761e-05
-1.56280954e-05
-3.89593994e-06
-3.34884283e-17
1.75545778e-05
3.22318639e-05
-6.53823145e-06
2.61590080e-15
3.69609480e-05
3.74801666e-06
2.34303712e-05
-1.32668123e-15
-2.07894786e-04
-6.00727319e-06
1.22905745e-05
7.98470315e-15
-7.25270577e-04
-2.69076430e-05
1.10806523e-04
-2.53936873e-14
3.86065961e-06
-1.85855039e-16
-4.24783687e-06
5.54798455e-17
2.25414123e-05
1.33207296e-08
1.53644357e-07
3.47483539e-07
2.67247992e-06
-5.57193820e-06
-4.48840928e-05
1.03697279e-05
-3.14095413e-05
2.21335131e-05
9.35963218e-16
2.26607658e-04
-2.31227482e-04
1.49461536e-04
-1.48184596e-15
-2.48045362e-04
1.34324316e-04
-7.28393986e-05
4.26086711e-16
-1.15660806e-03
8.22316727e-04
1.52262786e-04
1.32240226e-14
-3.85855452e-03
1.59496315e-04
6.01876817e-04
-8.00089535e-14
-1.28772591e-04
-2.54561051e-16
1.41559214e-06
-7.08504538e-16
9.80586323e-05
-4.99118828e-11
2.04174197e-08
-4.70545529e-08
4.03035485e-07
-4.31340373e-06
-1.79683736e-05
1.32474844e-05
1.73699436e-05
-1.88721582e-06
2.31254844e-16
2.28901443e-05
-3.71541744e-05
-1.64897780e-05
-1.67832246e-15
3.50425565e-05
1.97539251e-05
5.52164754e-06
3.29821018e-15
-1.83645961e-04
-3.62229061e-05
2.64465307e-05
-7.03477190e-15
-8.97949814e-04
1.10105277e-04
7.31936167e-05
9.18977683e-15
5.75232212e-06
-1.49241719e-16
-5.56208844e-06
-3.50651920e-16
1.53405286e-05
1.09722325e-03
8.35426267e-03
4.09338976e-02
1.38944706e-01
3.35940676e-01
1.44035130e-01
4.67500691e-01
-1.75862543e-04
-2.53899609e-04
4.65088567e-16
4.24240212e-03
8.88173161e-05
1.18783081e-04
1.76441644e-16
-2.20894469e-04
-6.58730027e-05
-1.36433078e-04
4.00022025e-15
2.48734844e-03
-1.01554302e-04
-9.04079260e-04
-8.50535557e-15
2.71616916e-03
1.68921470e-04
-7.51326815e-04
9.35803523e-15
1.58832750e-05
-2.38545927e-16
1.91787497e-05
-3.89515352e-16
-2.39413161e-05
-3.10261358e-06
-2.35839942e-05
-1.15835166e-04
-3.92085715e-04
-9.57410537e-04
-4.39920808e-04
-1.29894482e-03
-7.24971401e-06
-2.08210846e-05
7.11567678e-16
2.84559913e-05
1.12049303e-05
5.94925523e-05
-3.59193019e-16
-2.24004613e-05
-5.54101612e-05
-7.14904996e-05
5.09762425e-15
-5.33095433e-04
-3.48138860e-04
-1.45423467e-04
-5.79757209e-15
-1.11289910e-03
-6.39406897e-04
1.90807615e-04
1.68318458e-14
1.16460862e-05
2.51721805e-16
-7.10779230e-06
1.35645460e-16
-2.16221949e-05
-1.30075934e-09
3.57519075e-08
-1.51190681e-07
7.82988400e-07
-9.42039139e-06
-4.39854994e-05
2.64154475e-05
3.09553142e-06
-1.82748515e-05
1.61806198e-15
8.68250647e-05
-7.51141700e-06
8.66044740e-05
-2.84466630e-15
-1.54487975e-04
9.99534890e-05
-9.74828889e-05
8.87908093e-15
-7.29815090e-05
-6.50936565e-05
-1.42851007e-04
-2.41168754e-14
-4.39747000e-05
5.27282951e-04
6.86021553e-04
9.12238601e-14
-7.03832092e-06
2.22418243e-16
-5.11449240e-06
-2.14238201e-16
-3.89528346e-05
6.43434417e-06
-1.96970810e-06
-8.16496267e-05
1.90373021e-05
-2.91737680e-06
6.92572253e-06
-1.71336631e-17
   *****

     End transition

 Dyson orbitals calculation:   CPU 0.20 s  wall 0.22 s

 Total ccman2 time:   CPU 20284.75 s  wall 21372.00 s


 --------------------------------------------------------------
             Orbital Energies (a.u.) and Symmetries
 --------------------------------------------------------------

 Alpha MOs, Unrestricted
 -- Occupied --                  
-20.693 -20.623 -15.772 -15.700 -11.497 -11.457 -11.456 -11.400
  1 A'    2 A'    3 A'    4 A'    5 A'    6 A'    7 A'    8 A'                 
 -1.527  -1.501  -1.402  -1.326  -1.184  -1.026  -0.972  -0.892
  9 A'   10 A'   11 A'   12 A'   13 A'   14 A'   15 A'   16 A'                 
 -0.847  -0.803  -0.777  -0.752  -0.728  -0.708  -0.705  -0.692
 17 A'   18 A'   19 A'    1 A"   20 A'    2 A"   21 A'   22 A'                 
 -0.614  -0.593  -0.553  -0.544  -0.501  -0.119
  3 A"   23 A'    4 A"   24 A'    5 A"   25 A'                                 
 -- Virtual --                   
 -0.007   0.003   0.009   0.012   0.023   0.024   0.028   0.031
  6 A"   26 A'   27 A'    7 A"   28 A'   29 A'   30 A'    8 A"                 
  0.032   0.038   0.042   0.045   0.045   0.049   0.051   0.054
  9 A"   31 A'   32 A'   33 A'   34 A'   35 A'   10 A"   36 A'                 
  0.060   0.061   0.066   0.067   0.072   0.073   0.076   0.079
 11 A"   37 A'   38 A'   39 A'   12 A"   40 A'   13 A"   41 A'                 
  0.089   0.100   0.104   0.105   0.106   0.112   0.117   0.124
 14 A"   42 A'   43 A'   44 A'   15 A"   45 A'   46 A'   47 A'                 
  0.132   0.137   0.138   0.141   0.146   0.158   0.167   0.170
 48 A'   49 A'   50 A'   51 A'   16 A"   17 A"   52 A'   53 A'                 
  0.172   0.192   0.195   0.201   0.211   0.215   0.221   0.226
 18 A"   54 A'   55 A'   56 A'   19 A"   57 A'   20 A"   58 A'                 
  0.233   0.240   0.241   0.247   0.248   0.261   0.273   0.292
 59 A'   60 A'   61 A'   62 A'   21 A"   63 A'   64 A'   65 A'                 
  0.295   0.300   0.303   0.336   0.341   0.351   0.358   0.369
 22 A"   66 A'   67 A'   68 A'   23 A"   69 A'   70 A'   71 A'                 
  0.380   0.382   0.393   0.400   0.404   0.418   0.431   0.436
 72 A'   24 A"   73 A'   74 A'   75 A'   76 A'   77 A'   78 A'                 
  0.446   0.464   0.499   0.508   0.557   0.565   0.576   0.633
 79 A'   80 A'   81 A'   82 A'   83 A'   84 A'   85 A'   86 A'                 
  0.664   0.672   0.693   0.711   0.718   0.728   0.742   0.769
 25 A"   87 A'   88 A'   26 A"   89 A'   27 A"   90 A'   28 A"                 
  0.812   0.824   0.860   0.887   0.895   0.903   0.924   0.949
 91 A'   92 A'   93 A'   94 A'   95 A'   96 A'   97 A'   98 A'                 
  0.952   0.965   0.998   1.021   1.028   1.034   1.086   1.110
 99 A'   29 A"  100 A'  101 A'   30 A"  102 A'  103 A'   31 A"                 
  1.161   1.184   1.204   1.218   1.258   1.298   1.298   1.339
 32 A"  104 A'  105 A'  106 A'   33 A"  107 A'   34 A"   35 A"                 
  1.344   1.345   1.380   1.391   1.426   1.448   1.474   1.478
 36 A"  108 A'   37 A"  109 A'  110 A'   38 A"  111 A'  112 A'                 
  1.532   1.628   1.668   1.710   1.723   1.800   1.804   1.816
113 A'  114 A'  115 A'   39 A"  116 A'   40 A"  117 A'  118 A'                 
  1.847   1.853   1.890   1.922   1.939   1.967   2.037   2.053
119 A'   41 A"  120 A'  121 A'   42 A"  122 A'  123 A'  124 A'                 
  2.099   2.110   2.134   2.189   2.189   2.209   2.271   2.396
 43 A"  125 A'  126 A'  127 A'   44 A"  128 A'  129 A'  130 A'                 
  2.455   2.498   2.559   2.574   2.626   2.665   2.713   2.737
 45 A"  131 A'  132 A'   46 A"   47 A"  133 A'   48 A"  134 A'                 
  2.840   2.871   2.906   2.952   2.967   2.988   3.038   3.071
135 A'  136 A'  137 A'  138 A'   49 A"  139 A'  140 A'   50 A"                 
  3.100   3.103   3.122   3.159   3.191   3.200   3.224   3.225
141 A'   51 A"   52 A"  142 A'  143 A'   53 A"  144 A'   54 A"                 
  3.266   3.417   3.463   3.586   3.609   3.667   3.676   3.733
145 A'  146 A'  147 A'   55 A"  148 A'  149 A'   56 A"  150 A'                 
  3.791   3.809   3.893   3.933   4.038   4.130   4.188   4.284
151 A'  152 A'  153 A'  154 A'  155 A'  156 A'   57 A"   58 A"                 
  4.309   4.371   4.493   4.913   5.024   5.176   5.320   5.427
157 A'  158 A'  159 A'  160 A'  161 A'  162 A'  163 A'  164 A'                 
  5.456   5.553   5.570   5.625   5.642   5.707   5.768   6.302
 59 A"   60 A"  165 A'  166 A'  167 A'  168 A'  169 A'  170 A'                 
  6.366   7.521   7.632   9.702   9.820  20.530  20.598  20.618
171 A'  172 A'  173 A'  174 A'  175 A'  176 A'  177 A'  178 A'                 
 20.738  30.043  30.149  40.726  40.826  80.091  80.136  80.160
179 A'  180 A'  181 A'  182 A'  183 A'  184 A'  185 A'  186 A'                 
 80.269 116.170 116.266 159.084 159.170 321.922 321.954 321.980
187 A'  188 A'  189 A'  190 A'  191 A'  192 A'  193 A'  194 A'                 
322.080 460.277 460.363 631.791 631.8681431.4801431.5051431.530
195 A'  196 A'  197 A'  198 A'  199 A'  200 A'  201 A'  202 A'                 
*******2012.7572012.8362759.1922759.2648749.7048749.7288749.748
203 A'  204 A'  205 A'  206 A'  207 A'  208 A'  209 A'  210 A'                 
***************************************
211 A'  212 A'  213 A'  214 A'  215 A'                                         

 Beta MOs, Unrestricted
 -- Occupied --                  
-20.666 -20.619 -15.756 -15.702 -11.499 -11.469 -11.462 -11.381
  1 A'    2 A'    3 A'    4 A'    5 A'    6 A'    7 A'    8 A'                 
 -1.499  -1.462  -1.377  -1.316  -1.136  -1.025  -0.967  -0.876
  9 A'   10 A'   11 A'   12 A'   13 A'   14 A'   15 A'   16 A'                 
 -0.841  -0.798  -0.756  -0.719  -0.719  -0.695  -0.682  -0.608
 17 A'   18 A'   19 A'   20 A'    1 A"   21 A'   22 A'    2 A"                 
 -0.568  -0.561  -0.534  -0.463
 23 A'    3 A"   24 A'    4 A"                                                 
 -- Virtual --                   
 -0.100   0.003   0.013   0.015   0.019   0.024   0.028   0.031
  5 A"   25 A'   26 A'    6 A"   27 A'    7 A"   28 A'   29 A'                 
  0.033   0.034   0.038   0.045   0.045   0.049   0.051   0.052
  8 A"   30 A'    9 A"   31 A'   32 A'   33 A'   34 A'   35 A'                 
  0.056   0.063   0.063   0.067   0.068   0.075   0.080   0.082
 10 A"   36 A'   11 A"   37 A'   38 A'   39 A'   12 A"   40 A'                 
  0.086   0.087   0.099   0.103   0.109   0.110   0.115   0.119
 13 A"   41 A'   14 A"   42 A'   43 A'   44 A'   45 A'   46 A'                 
  0.122   0.131   0.137   0.141   0.142   0.152   0.158   0.172
 15 A"   47 A'   48 A'   49 A'   50 A'   51 A'   16 A"   52 A'                 
  0.176   0.179   0.181   0.198   0.206   0.209   0.214   0.219
 17 A"   18 A"   53 A'   54 A'   55 A'   56 A'   19 A"   57 A'                 
  0.228   0.236   0.237   0.243   0.246   0.253   0.255   0.264
 58 A'   20 A"   59 A'   60 A'   61 A'   62 A'   21 A"   63 A'                 
  0.281   0.296   0.306   0.307   0.311   0.337   0.352   0.362
 64 A'   65 A'   66 A'   22 A"   67 A'   68 A'   69 A'   70 A'                 
  0.374   0.375   0.385   0.389   0.396   0.402   0.407   0.422
 23 A"   71 A'   72 A'   24 A"   73 A'   74 A'   75 A'   76 A'                 
  0.436   0.437   0.449   0.466   0.502   0.512   0.561   0.569
 77 A'   78 A'   79 A'   80 A'   81 A'   82 A'   83 A'   84 A'                 
  0.585   0.634   0.677   0.687   0.696   0.702   0.723   0.743
 85 A'   86 A'   87 A'   25 A"   88 A'   26 A"   89 A'   27 A"                 
  0.748   0.757   0.817   0.828   0.867   0.890   0.899   0.906
 90 A'   28 A"   91 A'   92 A'   93 A'   94 A'   95 A'   96 A'                 
  0.927   0.951   0.959   0.993   1.006   1.023   1.034   1.035
 97 A'   98 A'   99 A'   29 A"  100 A'  101 A'  102 A'   30 A"                 
  1.089   1.130   1.175   1.185   1.210   1.220   1.293   1.301
103 A'   31 A"   32 A"  104 A'  105 A'  106 A'   33 A"  107 A'                 
  1.332   1.347   1.352   1.358   1.392   1.397   1.435   1.443
 34 A"   35 A"  108 A'   36 A"   37 A"  109 A'  110 A'   38 A"                 
  1.478   1.484   1.536   1.633   1.674   1.715   1.725   1.802
111 A'  112 A'  113 A'  114 A'  115 A'   39 A"  116 A'   40 A"                 
  1.805   1.827   1.848   1.850   1.893   1.928   1.944   1.966
117 A'  118 A'  119 A'   41 A"  120 A'  121 A'   42 A"  122 A'                 
  2.037   2.053   2.110   2.118   2.140   2.200   2.207   2.211
123 A'  124 A'  125 A'   43 A"  126 A'  127 A'   44 A"  128 A'                 
  2.269   2.400   2.464   2.502   2.563   2.580   2.639   2.669
129 A'  130 A'   45 A"  131 A'  132 A'   46 A"   47 A"  133 A'                 
  2.726   2.739   2.844   2.882   2.909   2.962   2.992   2.993
 48 A"  134 A'  135 A'  136 A'  137 A'  138 A'   49 A"  139 A'                 
  3.042   3.060   3.105   3.106   3.166   3.173   3.215   3.225
140 A'   50 A"   51 A"  141 A'   52 A"  142 A'  143 A'   53 A"                 
  3.247   3.249   3.273   3.422   3.468   3.616   3.635   3.672
144 A'   54 A"  145 A'  146 A'  147 A'  148 A'   55 A"  149 A'                 
  3.683   3.738   3.793   3.813   3.895   3.937   4.041   4.140
 56 A"  150 A'  151 A'  152 A'  153 A'  154 A'  155 A'  156 A'                 
  4.226   4.283   4.318   4.375   4.500   4.915   5.028   5.180
 57 A"   58 A"  157 A'  158 A'  159 A'  160 A'  161 A'  162 A'                 
  5.326   5.426   5.540   5.565   5.572   5.627   5.656   5.713
163 A'  164 A'   59 A"   60 A"  165 A'  166 A'  167 A'  168 A'                 
  5.769   6.313   6.368   7.536   7.632   9.729   9.827  20.532
169 A'  170 A'  171 A'  172 A'  173 A'  174 A'  175 A'  176 A'                 
 20.598  20.614  20.740  30.052  30.149  40.740  40.829  80.091
177 A'  178 A'  179 A'  180 A'  181 A'  182 A'  183 A'  184 A'                 
 80.136  80.159  80.270 116.174 116.266 159.088 159.171 321.921
185 A'  186 A'  187 A'  188 A'  189 A'  190 A'  191 A'  192 A'                 
321.953 321.979 322.080 460.278 460.363 631.792 631.8681431.480
193 A'  194 A'  195 A'  196 A'  197 A'  198 A'  199 A'  200 A'                 
*******1431.5301431.6232012.7572012.8362759.1922759.2648749.704
201 A'  202 A'  203 A'  204 A'  205 A'  206 A'  207 A'  208 A'                 
*******8749.7488749.832********************************
209 A'  210 A'  211 A'  212 A'  213 A'  214 A'  215 A'                         
 --------------------------------------------------------------

          Ground-State Mulliken Net Atomic Charges

     Atom                 Charge (a.u.)    Spin (a.u.)
  --------------------------------------------------------
      1 C                     1.916241      -2.238838
      2 H                     0.085113       0.337409
      3 H                    -0.095100       0.434129
      4 H                     0.397008       0.018538
      5 C                    -0.366043       0.397913
      6 O                     0.090496       0.028983
      7 C                    -0.708066      -0.218712
      8 O                     0.164028       0.552795
      9 N                    -0.501670      -0.005753
     10 N                    -0.226084       0.485553
     11 C                    -1.035230       2.214424
     12 H                     0.279308      -0.006441
  --------------------------------------------------------
  Sum of atomic charges =     0.000000
  Sum of spin   charges =     2.000000

 -----------------------------------------------------------------
                    Cartesian Multipole Moments
 -----------------------------------------------------------------
    Charge (ESU x 10^10)
                 0.0000
    Dipole Moment (Debye)
         X       5.2808      Y       5.3362      Z      -0.0000
       Tot       7.5074
    Quadrupole Moments (Debye-Ang)
        XX     -71.4310     XY     -12.2004     YY     -79.8103
        XZ      -0.0000     YZ       0.0000     ZZ     -61.7228
    Octopole Moments (Debye-Ang^2)
       XXX      60.8177    XXY      37.6120    XYY      58.2630
       YYY     215.4934    XXZ      -0.0000    XYZ       0.0000
       YYZ      -0.0000    XZZ      18.2957    YZZ      50.1272
       ZZZ      -0.0000
    Hexadecapole Moments (Debye-Ang^3)
      XXXX    -999.7487   XXXY    -157.5865   XXYY    -424.2853
      XYYY    -227.2654   YYYY   -1452.9758   XXXZ      -0.0000
      XXYZ       0.0000   XYYZ      -0.0000   YYYZ       0.0000
      XXZZ    -197.5662   XYZZ     -46.9972   YYZZ    -263.4926
      XZZZ      -0.0000   YZZZ       0.0000   ZZZZ    -256.9694
 -----------------------------------------------------------------
Archival summary:
1\1\n-62-23-30\SP\ProcedureUnspecified\BasisUnspecified\2244(3)\malop\ThuJun1300:30:362019ThuJun1300:30:362019\0\\#,ProcedureUnspecified,BasisUnspecified,\\0,3\N\H,1,1.01412\C,1,1.35946,2,118.093\O,3,1.22751,1,127.463,2,-0,0\N,3,1.43032,1,114.847,2,-180,0\H,5,1.01942,3,111.61,1,180,0\C,5,1.35712,3,127.429,1,-0,0\H,7,1.08865,5,118.617,3,-180,0\C,1,1.4495,2,116.902,3,-180,0\O,9,1.2531,1,116.011,2,0,0\C,9,1.41986,1,116.235,2,-180,0\H,11,1.0899,9,118.731,1,180,0\\HF=-412.374727\\@

 Total job time:  21467.55s(wall), 20600.74s(cpu) 
 Thu Jun 13 00:30:36 2019

======= MOLDEN-FORMATTED INPUT FILE FOLLOWS =======
[Molden Format]
[Atoms] (Angs)
  C      1    6     -0.13173890     -1.79208980     -0.00000000
  H      2    1     -2.14962000     -1.30978739     -0.00000000
  H      3    1     -0.31599560     -2.86503115     -0.00000000
  H      4    1      0.14407746      2.04280963     -0.00000000
  C      5    6     -1.17258876      0.48030861     -0.00000000
  O      6    8     -2.25008207      1.06833796     -0.00000000
  C      7    6      1.31158357      0.28308717      0.00000000
  O      8    8      2.36361668      0.96389345      0.00000000
  N      9    7      0.07017030      1.03138997     -0.00000000
  N     10    7     -1.19586868     -0.94982644     -0.00000000
  C     11    6      1.19165158     -1.13169473      0.00000000
  H     12    1      2.09970506     -1.73445456      0.00000000

======= END OF MOLDEN-FORMATTED INPUT FILE =======


        *************************************************************
        *                                                           *
        *  Thank you very much for using Q-Chem.  Have a nice day.  *
        *                                                           *
        *************************************************************


