[Molden Format]
[Atoms] (Angs)
  C      1    6     -0.00714236     -1.70213747     -0.00000000
  H      2    1     -2.06882847     -1.44022412      0.00000000
  H      3    1     -0.12337987     -2.77567521      0.00000000
  H      4    1      0.04651892      1.98813947     -0.00000000
  C      5    6     -1.21953563      0.40211669      0.00000000
  O      6    8     -2.25921553      1.03043814      0.00000000
  C      7    6      1.28797806      0.34644937     -0.00000000
  O      8    8      2.31273661      1.00537216     -0.00000000
  N      9    7      0.03446295      0.97739857     -0.00000000
  N     10    7     -1.17287765     -0.98229824      0.00000000
  C     11    6      1.20107039     -1.10433419     -0.00000000
  H     12    1      2.11220096     -1.67699125     -0.00000000
[GTO]
1    0
S    1    1.000000
   4.56324000E+03    1.96665000E-03 
S    1    1.000000
   6.82024000E+02    1.52306000E-02 
S    1    1.000000
   1.54973000E+02    7.61269000E-02 
S    1    1.000000
   4.44553000E+01    2.60801000E-01 
S    1    1.000000
   1.30290000E+01    6.16462000E-01 
S    1    1.000000
   1.82773000E+00    2.21006000E-01 
SP   3    1.000000
   2.09642000E+01    1.14660000E-01   4.02487000E-02 
   4.80331000E+00    9.19999000E-01   2.37594000E-01 
   1.45933000E+00   -3.03068000E-03   8.15854000E-01 
SP   1    1.000000
   4.83456000E-01    1.00000000E+00   1.00000000E+00 
SP   1    1.000000
   1.45585000E-01    1.00000000E+00   1.00000000E+00 
SP   1    1.000000
   4.38000000E-02    1.00000000E+00   1.00000000E+00 
SP   1    1.000000
   1.31927711E-02    1.00000000E+00   1.00000000E+00 
D    1    1.000000
   6.26000000E-01    1.00000000E+00 

2    0
S    3    1.000000
   3.38650000E+01    2.54938000E-02 
   5.09479000E+00    1.90373000E-01 
   1.15879000E+00    8.52161000E-01 
S    1    1.000000
   3.25840000E-01    1.00000000E+00 
S    1    1.000000
   1.02741000E-01    1.00000000E+00 
S    1    1.000000
   3.60000000E-02    1.00000000E+00 
P    1    1.000000
   7.50000000E-01    1.00000000E+00 

3    0
S    3    1.000000
   3.38650000E+01    2.54938000E-02 
   5.09479000E+00    1.90373000E-01 
   1.15879000E+00    8.52161000E-01 
S    1    1.000000
   3.25840000E-01    1.00000000E+00 
S    1    1.000000
   1.02741000E-01    1.00000000E+00 
S    1    1.000000
   3.60000000E-02    1.00000000E+00 
P    1    1.000000
   7.50000000E-01    1.00000000E+00 

4    0
S    3    1.000000
   3.38650000E+01    2.54938000E-02 
   5.09479000E+00    1.90373000E-01 
   1.15879000E+00    8.52161000E-01 
S    1    1.000000
   3.25840000E-01    1.00000000E+00 
S    1    1.000000
   1.02741000E-01    1.00000000E+00 
S    1    1.000000
   3.60000000E-02    1.00000000E+00 
P    1    1.000000
   7.50000000E-01    1.00000000E+00 

5    0
S    1    1.000000
   4.56324000E+03    1.96665000E-03 
S    1    1.000000
   6.82024000E+02    1.52306000E-02 
S    1    1.000000
   1.54973000E+02    7.61269000E-02 
S    1    1.000000
   4.44553000E+01    2.60801000E-01 
S    1    1.000000
   1.30290000E+01    6.16462000E-01 
S    1    1.000000
   1.82773000E+00    2.21006000E-01 
SP   3    1.000000
   2.09642000E+01    1.14660000E-01   4.02487000E-02 
   4.80331000E+00    9.19999000E-01   2.37594000E-01 
   1.45933000E+00   -3.03068000E-03   8.15854000E-01 
SP   1    1.000000
   4.83456000E-01    1.00000000E+00   1.00000000E+00 
SP   1    1.000000
   1.45585000E-01    1.00000000E+00   1.00000000E+00 
SP   1    1.000000
   4.38000000E-02    1.00000000E+00   1.00000000E+00 
SP   1    1.000000
   1.31927711E-02    1.00000000E+00   1.00000000E+00 
D    1    1.000000
   6.26000000E-01    1.00000000E+00 

6    0
S    1    1.000000
   8.58850000E+03    1.89515000E-03 
S    1    1.000000
   1.29723000E+03    1.43859000E-02 
S    1    1.000000
   2.99296000E+02    7.07320000E-02 
S    1    1.000000
   8.73771000E+01    2.40001000E-01 
S    1    1.000000
   2.56789000E+01    5.94797000E-01 
S    1    1.000000
   3.74004000E+00    2.80802000E-01 
SP   3    1.000000
   4.21175000E+01    1.13889000E-01   3.65114000E-02 
   9.62837000E+00    9.20811000E-01   2.37153000E-01 
   2.85332000E+00   -3.27447000E-03   8.19702000E-01 
SP   1    1.000000
   9.05661000E-01    1.00000000E+00   1.00000000E+00 
SP   1    1.000000
   2.55611000E-01    1.00000000E+00   1.00000000E+00 
SP   1    1.000000
   8.45000000E-02    1.00000000E+00   1.00000000E+00 
SP   1    1.000000
   2.54518072E-02    1.00000000E+00   1.00000000E+00 
D    1    1.000000
   1.29200000E+00    1.00000000E+00 

7    0
S    1    1.000000
   4.56324000E+03    1.96665000E-03 
S    1    1.000000
   6.82024000E+02    1.52306000E-02 
S    1    1.000000
   1.54973000E+02    7.61269000E-02 
S    1    1.000000
   4.44553000E+01    2.60801000E-01 
S    1    1.000000
   1.30290000E+01    6.16462000E-01 
S    1    1.000000
   1.82773000E+00    2.21006000E-01 
SP   3    1.000000
   2.09642000E+01    1.14660000E-01   4.02487000E-02 
   4.80331000E+00    9.19999000E-01   2.37594000E-01 
   1.45933000E+00   -3.03068000E-03   8.15854000E-01 
SP   1    1.000000
   4.83456000E-01    1.00000000E+00   1.00000000E+00 
SP   1    1.000000
   1.45585000E-01    1.00000000E+00   1.00000000E+00 
SP   1    1.000000
   4.38000000E-02    1.00000000E+00   1.00000000E+00 
SP   1    1.000000
   1.31927711E-02    1.00000000E+00   1.00000000E+00 
D    1    1.000000
   6.26000000E-01    1.00000000E+00 

8    0
S    1    1.000000
   8.58850000E+03    1.89515000E-03 
S    1    1.000000
   1.29723000E+03    1.43859000E-02 
S    1    1.000000
   2.99296000E+02    7.07320000E-02 
S    1    1.000000
   8.73771000E+01    2.40001000E-01 
S    1    1.000000
   2.56789000E+01    5.94797000E-01 
S    1    1.000000
   3.74004000E+00    2.80802000E-01 
SP   3    1.000000
   4.21175000E+01    1.13889000E-01   3.65114000E-02 
   9.62837000E+00    9.20811000E-01   2.37153000E-01 
   2.85332000E+00   -3.27447000E-03   8.19702000E-01 
SP   1    1.000000
   9.05661000E-01    1.00000000E+00   1.00000000E+00 
SP   1    1.000000
   2.55611000E-01    1.00000000E+00   1.00000000E+00 
SP   1    1.000000
   8.45000000E-02    1.00000000E+00   1.00000000E+00 
SP   1    1.000000
   2.54518072E-02    1.00000000E+00   1.00000000E+00 
D    1    1.000000
   1.29200000E+00    1.00000000E+00 

9    0
S    1    1.000000
   6.29348000E+03    1.96979000E-03 
S    1    1.000000
   9.49044000E+02    1.49613000E-02 
S    1    1.000000
   2.18776000E+02    7.35006000E-02 
S    1    1.000000
   6.36916000E+01    2.48937000E-01 
S    1    1.000000
   1.88282000E+01    6.02460000E-01 
S    1    1.000000
   2.72023000E+00    2.56202000E-01 
SP   3    1.000000
   3.06331000E+01    1.11906000E-01   3.83119000E-02 
   7.02614000E+00    9.21666000E-01   2.37403000E-01 
   2.11205000E+00   -2.56919000E-03   8.17592000E-01 
SP   1    1.000000
   6.84009000E-01    1.00000000E+00   1.00000000E+00 
SP   1    1.000000
   2.00878000E-01    1.00000000E+00   1.00000000E+00 
SP   1    1.000000
   6.39000000E-02    1.00000000E+00   1.00000000E+00 
SP   1    1.000000
   1.92469880E-02    1.00000000E+00   1.00000000E+00 
D    1    1.000000
   9.13000000E-01    1.00000000E+00 

10    0
S    1    1.000000
   6.29348000E+03    1.96979000E-03 
S    1    1.000000
   9.49044000E+02    1.49613000E-02 
S    1    1.000000
   2.18776000E+02    7.35006000E-02 
S    1    1.000000
   6.36916000E+01    2.48937000E-01 
S    1    1.000000
   1.88282000E+01    6.02460000E-01 
S    1    1.000000
   2.72023000E+00    2.56202000E-01 
SP   3    1.000000
   3.06331000E+01    1.11906000E-01   3.83119000E-02 
   7.02614000E+00    9.21666000E-01   2.37403000E-01 
   2.11205000E+00   -2.56919000E-03   8.17592000E-01 
SP   1    1.000000
   6.84009000E-01    1.00000000E+00   1.00000000E+00 
SP   1    1.000000
   2.00878000E-01    1.00000000E+00   1.00000000E+00 
SP   1    1.000000
   6.39000000E-02    1.00000000E+00   1.00000000E+00 
SP   1    1.000000
   1.92469880E-02    1.00000000E+00   1.00000000E+00 
D    1    1.000000
   9.13000000E-01    1.00000000E+00 

11    0
S    1    1.000000
   4.56324000E+03    1.96665000E-03 
S    1    1.000000
   6.82024000E+02    1.52306000E-02 
S    1    1.000000
   1.54973000E+02    7.61269000E-02 
S    1    1.000000
   4.44553000E+01    2.60801000E-01 
S    1    1.000000
   1.30290000E+01    6.16462000E-01 
S    1    1.000000
   1.82773000E+00    2.21006000E-01 
SP   3    1.000000
   2.09642000E+01    1.14660000E-01   4.02487000E-02 
   4.80331000E+00    9.19999000E-01   2.37594000E-01 
   1.45933000E+00   -3.03068000E-03   8.15854000E-01 
SP   1    1.000000
   4.83456000E-01    1.00000000E+00   1.00000000E+00 
SP   1    1.000000
   1.45585000E-01    1.00000000E+00   1.00000000E+00 
SP   1    1.000000
   4.38000000E-02    1.00000000E+00   1.00000000E+00 
SP   1    1.000000
   1.31927711E-02    1.00000000E+00   1.00000000E+00 
D    1    1.000000
   6.26000000E-01    1.00000000E+00 

12    0
S    3    1.000000
   3.38650000E+01    2.54938000E-02 
   5.09479000E+00    1.90373000E-01 
   1.15879000E+00    8.52161000E-01 
S    1    1.000000
   3.25840000E-01    1.00000000E+00 
S    1    1.000000
   1.02741000E-01    1.00000000E+00 
S    1    1.000000
   3.60000000E-02    1.00000000E+00 
P    1    1.000000
   7.50000000E-01    1.00000000E+00 

[MO]
Sym=X
Ene=0.011854
Spin=Alpha
Occup=1
1    1.71562878e-09
2    -5.00743647e-08
3    5.90032987e-08
4    -1.66755969e-06
5    -6.64904866e-06
6    3.33037426e-06
7    1.62110903e-06
8    -6.17549189e-07
9    7.76238551e-16
10    1.94396025e-05
11    -1.66791279e-05
12    5.42393857e-06
13    2.53455658e-15
14    -0.000149445074
15    -2.65907106e-05
16    -0.000148461974
17    -5.99294552e-16
18    -0.0028812165
19    5.51518556e-06
20    -0.00121471271
21    4.83723865e-14
22    -0.000315053232
23    -0.000236486694
24    0.000201673602
25    9.33067965e-15
26    -7.61222164e-06
27    -1.04504161e-16
28    2.71513376e-06
29    -4.3727905e-16
30    -4.78228392e-06
31    6.87852869e-06
32    -1.15108245e-05
33    -2.50940099e-05
34    9.53820844e-05
35    3.36432854e-06
36    -8.15607257e-06
37    1.05966105e-15
38    1.2639848e-06
39    -1.95988408e-05
40    -0.000111654264
41    -0.000764729588
42    -1.12521636e-06
43    -3.57541037e-06
44    2.5825817e-16
45    5.55114872e-06
46    9.54605754e-07
47    -9.75661377e-05
48    0.000125569111
49    8.55285973e-06
50    4.54511937e-07
51    -3.1429935e-16
52    -8.9319871e-09
53    -1.29004193e-07
54    -2.76475357e-07
55    -3.22628909e-06
56    -7.12078555e-06
57    -0.000120335071
58    -1.44585324e-05
59    -3.51001239e-05
60    2.16319961e-05
61    2.46144824e-15
62    0.000446168032
63    -0.000453437879
64    0.000272765801
65    -9.87217703e-16
66    -0.000890622689
67    0.000469321275
68    -0.000285853258
69    6.32397476e-15
70    -0.00214888107
71    0.00270459058
72    -0.00173893716
73    4.94792364e-14
74    0.00139358609
75    0.000107704022
76    0.000232146172
77    5.71151382e-15
78    -0.000243926338
79    -6.14535204e-16
80    -8.00368755e-05
81    -1.09916652e-15
82    0.000127607857
83    0.00104384945
84    0.0079406913
85    0.0389355534
86    0.13250963
87    0.327964776
88    0.155520535
89    0.471287983
90    0.00159310076
91    -0.000975079045
92    9.90933625e-16
93    0.00493927401
94    -0.000742637871
95    0.000452855108
96    7.1008068e-16
97    -0.000586075127
98    0.000409149906
99    -0.000250307144
100    5.11250234e-15
101    0.00323892267
102    0.000235874941
103    -0.000142278724
104    -5.6499681e-15
105    0.00755103105
106    0.00139659673
107    -0.000692638636
108    4.63732219e-15
109    8.60931373e-05
110    -7.73368368e-16
111    -7.52546258e-05
112    1.85265405e-16
113    -4.74858831e-05
114    -8.07007695e-10
115    1.97905272e-09
116    -5.04120798e-08
117    6.59586733e-08
118    -1.66705738e-06
119    -6.44182382e-06
120    3.32189292e-06
121    2.02473926e-06
122    5.43662107e-07
123    -1.8902778e-15
124    1.64137514e-05
125    -1.13621881e-05
126    2.55516124e-06
127    1.00710576e-15
128    6.10628852e-05
129    0.000237013843
130    0.000157555328
131    -9.57118789e-15
132    -0.00186113962
133    0.00111956932
134    0.000399458624
135    6.86109282e-14
136    -0.000408317081
137    0.000173897851
138    -0.000252996066
139    4.4977902e-14
140    3.78976995e-06
141    -9.11782089e-16
142    -5.01711519e-07
143    -1.14134749e-15
144    5.54622869e-06
145    -7.71776626e-08
146    -5.827514e-07
147    -2.88865729e-06
148    -9.71164982e-06
149    -2.50987658e-05
150    -1.51462779e-05
151    -3.24437498e-05
152    1.7858575e-06
153    -1.22708067e-07
154    -7.19014836e-16
155    1.1136888e-05
156    -5.60172941e-06
157    -3.1256734e-07
158    -2.90597421e-15
159    -9.25957829e-05
160    5.6084839e-05
161    2.41373858e-05
162    1.10597994e-15
163    -0.000455749844
164    4.22938451e-05
165    7.21835137e-05
166    -9.35685559e-15
167    -0.00238383519
168    0.000383269939
169    7.94199347e-05
170    -1.52361023e-14
171    -1.60461479e-06
172    -1.66492439e-16
173    1.27558088e-06
174    -5.21483233e-17
175    -4.41255048e-07
176    -1.31342714e-09
177    2.50743434e-08
178    -1.26548808e-07
179    5.51608379e-07
180    -6.80554434e-06
181    -2.76178391e-05
182    1.88699884e-05
183    1.67374188e-05
184    -1.4929527e-06
185    1.76892898e-15
186    3.91931965e-05
187    -5.50563508e-05
188    -5.55796022e-07
189    -5.76610225e-15
190    2.09288966e-05
191    1.33728683e-05
192    -1.89804086e-05
193    1.40722862e-14
194    0.000191337136
195    -3.86573054e-05
196    0.000213124084
197    -4.14507933e-14
198    -0.00142383321
199    0.00233556168
200    -7.26674368e-05
201    -4.41582749e-14
202    3.90177797e-06
203    -3.6981108e-16
204    -4.5029756e-06
205    -1.22063878e-15
206    3.15258897e-05
207    -1.31336805e-09
208    2.76139674e-08
209    -1.32263869e-07
210    6.03484617e-07
211    -7.26503642e-06
212    -2.95953018e-05
213    2.02193096e-05
214    8.70022747e-06
215    -1.4764498e-05
216    3.01556356e-15
217    4.43338649e-05
218    -2.37696928e-05
219    5.12890483e-05
220    -1.79680212e-15
221    -8.02530584e-06
222    7.64997019e-06
223    -1.9329439e-05
224    1.58929574e-14
225    0.000193752666
226    -5.91202081e-05
227    -1.38503543e-05
228    -3.69087492e-14
229    -0.00192129041
230    0.00037944174
231    -0.000770561145
232    -1.41751737e-14
233    -2.04190166e-05
234    2.09222824e-16
235    -4.10657961e-06
236    2.54141221e-17
237    -2.38389288e-05
238    3.51504988e-11
239    2.76306746e-10
240    1.40182609e-09
241    1.72572018e-09
242    -6.64134718e-08
243    -1.08011644e-06
244    2.90879274e-07
245    1.28681772e-06
246    -4.96549512e-08
247    4.49284991e-16
248    -6.290507e-08
249    -1.35086465e-05
250    1.04883494e-06
251    5.43037591e-16
252    0.000236693982
253    -0.000144726077
254    7.93359811e-05
255    5.27420733e-15
256    0.00307491779
257    -0.000723618608
258    0.000413187149
259    -5.28409854e-14
260    -0.000115292375
261    -0.000110703515
262    -0.000282348474
263    -2.88636547e-14
264    5.77496834e-06
265    -3.09113905e-16
266    1.2883054e-06
267    -6.4547504e-16
268    3.08457824e-07
269    5.93613608e-07
270    2.44099011e-05
271    5.53406855e-05
272    6.99193056e-05
273    -3.62525963e-06
274    2.51610013e-06
275    -1.18817414e-16
[5D]