[Molden Format]
[Atoms] (Angs)
  C      1    6     -0.00714236     -1.70213747     -0.00000000
  H      2    1     -2.06882847     -1.44022412      0.00000000
  H      3    1     -0.12337987     -2.77567521      0.00000000
  H      4    1      0.04651892      1.98813947     -0.00000000
  C      5    6     -1.21953563      0.40211669      0.00000000
  O      6    8     -2.25921553      1.03043814      0.00000000
  C      7    6      1.28797806      0.34644937     -0.00000000
  O      8    8      2.31273661      1.00537216     -0.00000000
  N      9    7      0.03446295      0.97739857     -0.00000000
  N     10    7     -1.17287765     -0.98229824      0.00000000
  C     11    6      1.20107039     -1.10433419     -0.00000000
  H     12    1      2.11220096     -1.67699125     -0.00000000
[GTO]
1    0
S    1    1.000000
   4.56324000E+03    1.96665000E-03 
S    1    1.000000
   6.82024000E+02    1.52306000E-02 
S    1    1.000000
   1.54973000E+02    7.61269000E-02 
S    1    1.000000
   4.44553000E+01    2.60801000E-01 
S    1    1.000000
   1.30290000E+01    6.16462000E-01 
S    1    1.000000
   1.82773000E+00    2.21006000E-01 
SP   3    1.000000
   2.09642000E+01    1.14660000E-01   4.02487000E-02 
   4.80331000E+00    9.19999000E-01   2.37594000E-01 
   1.45933000E+00   -3.03068000E-03   8.15854000E-01 
SP   1    1.000000
   4.83456000E-01    1.00000000E+00   1.00000000E+00 
SP   1    1.000000
   1.45585000E-01    1.00000000E+00   1.00000000E+00 
SP   1    1.000000
   4.38000000E-02    1.00000000E+00   1.00000000E+00 
SP   1    1.000000
   1.31927711E-02    1.00000000E+00   1.00000000E+00 
D    1    1.000000
   6.26000000E-01    1.00000000E+00 

2    0
S    3    1.000000
   3.38650000E+01    2.54938000E-02 
   5.09479000E+00    1.90373000E-01 
   1.15879000E+00    8.52161000E-01 
S    1    1.000000
   3.25840000E-01    1.00000000E+00 
S    1    1.000000
   1.02741000E-01    1.00000000E+00 
S    1    1.000000
   3.60000000E-02    1.00000000E+00 
P    1    1.000000
   7.50000000E-01    1.00000000E+00 

3    0
S    3    1.000000
   3.38650000E+01    2.54938000E-02 
   5.09479000E+00    1.90373000E-01 
   1.15879000E+00    8.52161000E-01 
S    1    1.000000
   3.25840000E-01    1.00000000E+00 
S    1    1.000000
   1.02741000E-01    1.00000000E+00 
S    1    1.000000
   3.60000000E-02    1.00000000E+00 
P    1    1.000000
   7.50000000E-01    1.00000000E+00 

4    0
S    3    1.000000
   3.38650000E+01    2.54938000E-02 
   5.09479000E+00    1.90373000E-01 
   1.15879000E+00    8.52161000E-01 
S    1    1.000000
   3.25840000E-01    1.00000000E+00 
S    1    1.000000
   1.02741000E-01    1.00000000E+00 
S    1    1.000000
   3.60000000E-02    1.00000000E+00 
P    1    1.000000
   7.50000000E-01    1.00000000E+00 

5    0
S    1    1.000000
   4.56324000E+03    1.96665000E-03 
S    1    1.000000
   6.82024000E+02    1.52306000E-02 
S    1    1.000000
   1.54973000E+02    7.61269000E-02 
S    1    1.000000
   4.44553000E+01    2.60801000E-01 
S    1    1.000000
   1.30290000E+01    6.16462000E-01 
S    1    1.000000
   1.82773000E+00    2.21006000E-01 
SP   3    1.000000
   2.09642000E+01    1.14660000E-01   4.02487000E-02 
   4.80331000E+00    9.19999000E-01   2.37594000E-01 
   1.45933000E+00   -3.03068000E-03   8.15854000E-01 
SP   1    1.000000
   4.83456000E-01    1.00000000E+00   1.00000000E+00 
SP   1    1.000000
   1.45585000E-01    1.00000000E+00   1.00000000E+00 
SP   1    1.000000
   4.38000000E-02    1.00000000E+00   1.00000000E+00 
SP   1    1.000000
   1.31927711E-02    1.00000000E+00   1.00000000E+00 
D    1    1.000000
   6.26000000E-01    1.00000000E+00 

6    0
S    1    1.000000
   8.58850000E+03    1.89515000E-03 
S    1    1.000000
   1.29723000E+03    1.43859000E-02 
S    1    1.000000
   2.99296000E+02    7.07320000E-02 
S    1    1.000000
   8.73771000E+01    2.40001000E-01 
S    1    1.000000
   2.56789000E+01    5.94797000E-01 
S    1    1.000000
   3.74004000E+00    2.80802000E-01 
SP   3    1.000000
   4.21175000E+01    1.13889000E-01   3.65114000E-02 
   9.62837000E+00    9.20811000E-01   2.37153000E-01 
   2.85332000E+00   -3.27447000E-03   8.19702000E-01 
SP   1    1.000000
   9.05661000E-01    1.00000000E+00   1.00000000E+00 
SP   1    1.000000
   2.55611000E-01    1.00000000E+00   1.00000000E+00 
SP   1    1.000000
   8.45000000E-02    1.00000000E+00   1.00000000E+00 
SP   1    1.000000
   2.54518072E-02    1.00000000E+00   1.00000000E+00 
D    1    1.000000
   1.29200000E+00    1.00000000E+00 

7    0
S    1    1.000000
   4.56324000E+03    1.96665000E-03 
S    1    1.000000
   6.82024000E+02    1.52306000E-02 
S    1    1.000000
   1.54973000E+02    7.61269000E-02 
S    1    1.000000
   4.44553000E+01    2.60801000E-01 
S    1    1.000000
   1.30290000E+01    6.16462000E-01 
S    1    1.000000
   1.82773000E+00    2.21006000E-01 
SP   3    1.000000
   2.09642000E+01    1.14660000E-01   4.02487000E-02 
   4.80331000E+00    9.19999000E-01   2.37594000E-01 
   1.45933000E+00   -3.03068000E-03   8.15854000E-01 
SP   1    1.000000
   4.83456000E-01    1.00000000E+00   1.00000000E+00 
SP   1    1.000000
   1.45585000E-01    1.00000000E+00   1.00000000E+00 
SP   1    1.000000
   4.38000000E-02    1.00000000E+00   1.00000000E+00 
SP   1    1.000000
   1.31927711E-02    1.00000000E+00   1.00000000E+00 
D    1    1.000000
   6.26000000E-01    1.00000000E+00 

8    0
S    1    1.000000
   8.58850000E+03    1.89515000E-03 
S    1    1.000000
   1.29723000E+03    1.43859000E-02 
S    1    1.000000
   2.99296000E+02    7.07320000E-02 
S    1    1.000000
   8.73771000E+01    2.40001000E-01 
S    1    1.000000
   2.56789000E+01    5.94797000E-01 
S    1    1.000000
   3.74004000E+00    2.80802000E-01 
SP   3    1.000000
   4.21175000E+01    1.13889000E-01   3.65114000E-02 
   9.62837000E+00    9.20811000E-01   2.37153000E-01 
   2.85332000E+00   -3.27447000E-03   8.19702000E-01 
SP   1    1.000000
   9.05661000E-01    1.00000000E+00   1.00000000E+00 
SP   1    1.000000
   2.55611000E-01    1.00000000E+00   1.00000000E+00 
SP   1    1.000000
   8.45000000E-02    1.00000000E+00   1.00000000E+00 
SP   1    1.000000
   2.54518072E-02    1.00000000E+00   1.00000000E+00 
D    1    1.000000
   1.29200000E+00    1.00000000E+00 

9    0
S    1    1.000000
   6.29348000E+03    1.96979000E-03 
S    1    1.000000
   9.49044000E+02    1.49613000E-02 
S    1    1.000000
   2.18776000E+02    7.35006000E-02 
S    1    1.000000
   6.36916000E+01    2.48937000E-01 
S    1    1.000000
   1.88282000E+01    6.02460000E-01 
S    1    1.000000
   2.72023000E+00    2.56202000E-01 
SP   3    1.000000
   3.06331000E+01    1.11906000E-01   3.83119000E-02 
   7.02614000E+00    9.21666000E-01   2.37403000E-01 
   2.11205000E+00   -2.56919000E-03   8.17592000E-01 
SP   1    1.000000
   6.84009000E-01    1.00000000E+00   1.00000000E+00 
SP   1    1.000000
   2.00878000E-01    1.00000000E+00   1.00000000E+00 
SP   1    1.000000
   6.39000000E-02    1.00000000E+00   1.00000000E+00 
SP   1    1.000000
   1.92469880E-02    1.00000000E+00   1.00000000E+00 
D    1    1.000000
   9.13000000E-01    1.00000000E+00 

10    0
S    1    1.000000
   6.29348000E+03    1.96979000E-03 
S    1    1.000000
   9.49044000E+02    1.49613000E-02 
S    1    1.000000
   2.18776000E+02    7.35006000E-02 
S    1    1.000000
   6.36916000E+01    2.48937000E-01 
S    1    1.000000
   1.88282000E+01    6.02460000E-01 
S    1    1.000000
   2.72023000E+00    2.56202000E-01 
SP   3    1.000000
   3.06331000E+01    1.11906000E-01   3.83119000E-02 
   7.02614000E+00    9.21666000E-01   2.37403000E-01 
   2.11205000E+00   -2.56919000E-03   8.17592000E-01 
SP   1    1.000000
   6.84009000E-01    1.00000000E+00   1.00000000E+00 
SP   1    1.000000
   2.00878000E-01    1.00000000E+00   1.00000000E+00 
SP   1    1.000000
   6.39000000E-02    1.00000000E+00   1.00000000E+00 
SP   1    1.000000
   1.92469880E-02    1.00000000E+00   1.00000000E+00 
D    1    1.000000
   9.13000000E-01    1.00000000E+00 

11    0
S    1    1.000000
   4.56324000E+03    1.96665000E-03 
S    1    1.000000
   6.82024000E+02    1.52306000E-02 
S    1    1.000000
   1.54973000E+02    7.61269000E-02 
S    1    1.000000
   4.44553000E+01    2.60801000E-01 
S    1    1.000000
   1.30290000E+01    6.16462000E-01 
S    1    1.000000
   1.82773000E+00    2.21006000E-01 
SP   3    1.000000
   2.09642000E+01    1.14660000E-01   4.02487000E-02 
   4.80331000E+00    9.19999000E-01   2.37594000E-01 
   1.45933000E+00   -3.03068000E-03   8.15854000E-01 
SP   1    1.000000
   4.83456000E-01    1.00000000E+00   1.00000000E+00 
SP   1    1.000000
   1.45585000E-01    1.00000000E+00   1.00000000E+00 
SP   1    1.000000
   4.38000000E-02    1.00000000E+00   1.00000000E+00 
SP   1    1.000000
   1.31927711E-02    1.00000000E+00   1.00000000E+00 
D    1    1.000000
   6.26000000E-01    1.00000000E+00 

12    0
S    3    1.000000
   3.38650000E+01    2.54938000E-02 
   5.09479000E+00    1.90373000E-01 
   1.15879000E+00    8.52161000E-01 
S    1    1.000000
   3.25840000E-01    1.00000000E+00 
S    1    1.000000
   1.02741000E-01    1.00000000E+00 
S    1    1.000000
   3.60000000E-02    1.00000000E+00 
P    1    1.000000
   7.50000000E-01    1.00000000E+00 

[MO]
Sym=X
Ene=5.5e-05
Spin=Alpha
Occup=1
1    -4.38912644e-09
2    1.8646281e-08
3    -1.00226986e-07
4    9.73367781e-07
5    3.6865086e-06
6    -2.54364451e-06
7    1.8937274e-06
8    7.08298091e-07
9    7.04347252e-16
10    -8.41016161e-06
11    -2.13400612e-05
12    -3.09483792e-06
13    2.61032186e-15
14    4.05570788e-05
15    -7.8115964e-06
16    -2.65999017e-05
17    2.05600782e-15
18    -0.00353128448
19    -0.000218430593
20    -0.000930281053
21    1.66529056e-14
22    -0.000609028537
23    -0.000343951183
24    0.000149552966
25    6.2402121e-14
26    -1.3727931e-05
27    -8.3358367e-17
28    5.32769965e-07
29    -3.00704593e-16
30    -1.18054699e-07
31    5.75153859e-06
32    -2.26243746e-05
33    -1.78757336e-05
34    2.0261397e-05
35    2.50091251e-06
36    -7.99694582e-06
37    1.03179858e-15
38    1.84716365e-06
39    -1.3145158e-05
40    -1.41534999e-05
41    -0.000507605611
42    -2.51522834e-06
43    -1.49441478e-06
44    1.43000807e-16
45    1.1617171e-06
46    8.40634724e-07
47    -8.79312956e-05
48    4.8194163e-05
49    9.97519481e-06
50    9.20316055e-07
51    -2.4409473e-16
52    -7.23816413e-09
53    -1.12254713e-07
54    -2.09709798e-07
55    -2.81687939e-06
56    -5.19023692e-06
57    -0.000100036328
58    -1.4361373e-05
59    -2.9961623e-05
60    1.83508233e-05
61    1.71194114e-15
62    0.000374046878
63    -0.000393589188
64    0.00023395226
65    5.88048818e-16
66    -0.000744837148
67    0.000539569283
68    -0.000302720859
69    3.67268753e-15
70    -0.0013543855
71    0.00291537353
72    -0.00156296518
73    3.34331933e-14
74    0.00174406528
75    0.000217015232
76    0.000421504379
77    -2.17111895e-14
78    -0.000208756895
79    -7.80807695e-16
80    -6.97723348e-05
81    -1.12071304e-15
82    0.000107500819
83    0.000900100712
84    0.00684717545
85    0.0335737331
86    0.11426167
87    0.282800968
88    0.134105043
89    0.406385974
90    0.00137462663
91    -0.000840502691
92    1.17136615e-15
93    0.00425474034
94    -0.00064333485
95    0.000389870785
96    -1.22416506e-16
97    -0.000466110783
98    0.000377949709
99    -0.00022564247
100    6.88344907e-15
101    0.00302199637
102    0.00021638126
103    -0.000165764321
104    -8.03083628e-15
105    0.00777166544
106    0.0014013475
107    -0.000640761493
108    1.44784388e-14
109    7.33767726e-05
110    -6.95991435e-16
111    -6.54595222e-05
112    -9.15535946e-18
113    -4.09136266e-05
114    3.29009277e-09
115    6.27112444e-08
116    7.52408065e-08
117    1.60166162e-06
118    1.7731955e-06
119    5.16010464e-05
120    1.03084024e-05
121    -1.45692882e-05
122    -1.21516136e-05
123    -1.40393041e-15
124    -0.00019652371
125    -0.00022929584
126    -0.000143198688
127    -7.28933498e-16
128    0.000459660726
129    0.000369962741
130    0.000243303594
131    -6.23137135e-15
132    -0.00140410028
133    0.00257396429
134    0.00118547842
135    2.22029911e-14
136    -0.000448272835
137    0.000372680105
138    -0.000595181741
139    7.12449041e-14
140    -0.000122736117
141    -1.07692296e-15
142    3.68653891e-05
143    -1.18570595e-15
144    -5.21971159e-05
145    -0.000528625983
146    -0.00402131968
147    -0.0197177411
148    -0.0671052706
149    -0.166087407
150    -0.078750781
151    -0.238674999
152    0.000790282863
153    0.000474642886
154    -1.17047233e-15
155    -0.00249078438
156    -0.000371314549
157    -0.000220158279
158    -2.21932543e-15
159    0.000243759
160    0.000245281452
161    0.000134029083
162    -2.3748094e-15
163    -0.00192225808
164    0.000112930159
165    0.000136795723
166    -1.21769734e-15
167    -0.00531118071
168    0.000935815282
169    0.000258768819
170    -1.10163668e-14
171    4.50692809e-05
172    -1.74181841e-16
173    5.54339321e-05
174    4.61102605e-17
175    2.26665493e-05
176    -7.36527965e-10
177    9.28752813e-09
178    -6.0815847e-08
179    2.11491785e-07
180    -2.9231067e-06
181    -1.16561682e-05
182    7.68798728e-06
183    2.32311487e-05
184    -1.94933127e-06
185    1.13849033e-15
186    2.16029308e-05
187    -7.63612617e-05
188    3.90913841e-06
189    -4.74766753e-15
190    -4.42845266e-05
191    3.60149636e-05
192    1.26539411e-05
193    8.71592735e-15
194    0.000238220119
195    1.64823617e-05
196    0.000134509123
197    -2.04494836e-14
198    -0.000126227709
199    0.00344773109
200    -9.09590221e-05
201    -2.40448857e-14
202    9.63364475e-06
203    -6.38057061e-16
204    -7.02290181e-07
205    -1.18263124e-15
206    1.27912542e-05
207    -1.04674919e-09
208    2.19287353e-08
209    -1.0496982e-07
210    4.79406327e-07
211    -5.79125904e-06
212    -2.3654522e-05
213    1.62392863e-05
214    7.76232483e-06
215    -1.30237985e-05
216    2.42633587e-15
217    3.6900404e-05
218    -2.25644897e-05
219    4.55509177e-05
220    2.11343837e-16
221    -6.6609428e-05
222    -4.25317813e-05
223    -3.32298128e-05
224    1.08894485e-14
225    -0.000171164425
226    -0.000177653953
227    -2.85241877e-05
228    -1.58872808e-14
229    -0.00166934511
230    0.000197437889
231    -0.000602678302
232    -1.71666129e-14
233    -1.55731714e-05
234    1.39108009e-16
235    -3.78486654e-06
236    -9.97048975e-17
237    -1.98381289e-05
238    -6.75725255e-10
239    -9.1845231e-09
240    -1.87463293e-08
241    -1.72145588e-07
242    6.2273422e-07
243    4.30222089e-06
244    -3.37951645e-06
245    5.11396625e-06
246    6.98932612e-06
247    -9.83810103e-17
248    -3.9464379e-06
249    -2.24183995e-05
250    -3.48591468e-05
251    2.47608416e-15
252    0.000113678322
253    -5.84425442e-05
254    7.93382034e-05
255    -9.70766724e-16
256    0.00441569855
257    -0.00148656305
258    0.000393564991
259    -7.20592821e-15
260    -0.000351211175
261    -0.000252229409
262    -0.000331900626
263    -8.66742467e-14
264    -1.51337366e-05
265    -3.69750056e-16
266    1.10003346e-06
267    -4.56703393e-16
268    2.03519729e-05
269    -2.37045676e-06
270    -6.06355633e-06
271    8.2698276e-05
272    0.000546644322
273    4.32693833e-06
274    -8.89079717e-07
275    -3.26808305e-17
[5D]