[Molden Format]
[Atoms] (Angs)
  C      1    6     -0.00714236     -1.70213747     -0.00000000
  H      2    1     -2.06882847     -1.44022412      0.00000000
  H      3    1     -0.12337987     -2.77567521      0.00000000
  H      4    1      0.04651892      1.98813947     -0.00000000
  C      5    6     -1.21953563      0.40211669      0.00000000
  O      6    8     -2.25921553      1.03043814      0.00000000
  C      7    6      1.28797806      0.34644937     -0.00000000
  O      8    8      2.31273661      1.00537216     -0.00000000
  N      9    7      0.03446295      0.97739857     -0.00000000
  N     10    7     -1.17287765     -0.98229824      0.00000000
  C     11    6      1.20107039     -1.10433419     -0.00000000
  H     12    1      2.11220096     -1.67699125     -0.00000000
[GTO]
1    0
S    1    1.000000
   4.56324000E+03    1.96665000E-03 
S    1    1.000000
   6.82024000E+02    1.52306000E-02 
S    1    1.000000
   1.54973000E+02    7.61269000E-02 
S    1    1.000000
   4.44553000E+01    2.60801000E-01 
S    1    1.000000
   1.30290000E+01    6.16462000E-01 
S    1    1.000000
   1.82773000E+00    2.21006000E-01 
SP   3    1.000000
   2.09642000E+01    1.14660000E-01   4.02487000E-02 
   4.80331000E+00    9.19999000E-01   2.37594000E-01 
   1.45933000E+00   -3.03068000E-03   8.15854000E-01 
SP   1    1.000000
   4.83456000E-01    1.00000000E+00   1.00000000E+00 
SP   1    1.000000
   1.45585000E-01    1.00000000E+00   1.00000000E+00 
SP   1    1.000000
   4.38000000E-02    1.00000000E+00   1.00000000E+00 
SP   1    1.000000
   1.31927711E-02    1.00000000E+00   1.00000000E+00 
D    1    1.000000
   6.26000000E-01    1.00000000E+00 

2    0
S    3    1.000000
   3.38650000E+01    2.54938000E-02 
   5.09479000E+00    1.90373000E-01 
   1.15879000E+00    8.52161000E-01 
S    1    1.000000
   3.25840000E-01    1.00000000E+00 
S    1    1.000000
   1.02741000E-01    1.00000000E+00 
S    1    1.000000
   3.60000000E-02    1.00000000E+00 
P    1    1.000000
   7.50000000E-01    1.00000000E+00 

3    0
S    3    1.000000
   3.38650000E+01    2.54938000E-02 
   5.09479000E+00    1.90373000E-01 
   1.15879000E+00    8.52161000E-01 
S    1    1.000000
   3.25840000E-01    1.00000000E+00 
S    1    1.000000
   1.02741000E-01    1.00000000E+00 
S    1    1.000000
   3.60000000E-02    1.00000000E+00 
P    1    1.000000
   7.50000000E-01    1.00000000E+00 

4    0
S    3    1.000000
   3.38650000E+01    2.54938000E-02 
   5.09479000E+00    1.90373000E-01 
   1.15879000E+00    8.52161000E-01 
S    1    1.000000
   3.25840000E-01    1.00000000E+00 
S    1    1.000000
   1.02741000E-01    1.00000000E+00 
S    1    1.000000
   3.60000000E-02    1.00000000E+00 
P    1    1.000000
   7.50000000E-01    1.00000000E+00 

5    0
S    1    1.000000
   4.56324000E+03    1.96665000E-03 
S    1    1.000000
   6.82024000E+02    1.52306000E-02 
S    1    1.000000
   1.54973000E+02    7.61269000E-02 
S    1    1.000000
   4.44553000E+01    2.60801000E-01 
S    1    1.000000
   1.30290000E+01    6.16462000E-01 
S    1    1.000000
   1.82773000E+00    2.21006000E-01 
SP   3    1.000000
   2.09642000E+01    1.14660000E-01   4.02487000E-02 
   4.80331000E+00    9.19999000E-01   2.37594000E-01 
   1.45933000E+00   -3.03068000E-03   8.15854000E-01 
SP   1    1.000000
   4.83456000E-01    1.00000000E+00   1.00000000E+00 
SP   1    1.000000
   1.45585000E-01    1.00000000E+00   1.00000000E+00 
SP   1    1.000000
   4.38000000E-02    1.00000000E+00   1.00000000E+00 
SP   1    1.000000
   1.31927711E-02    1.00000000E+00   1.00000000E+00 
D    1    1.000000
   6.26000000E-01    1.00000000E+00 

6    0
S    1    1.000000
   8.58850000E+03    1.89515000E-03 
S    1    1.000000
   1.29723000E+03    1.43859000E-02 
S    1    1.000000
   2.99296000E+02    7.07320000E-02 
S    1    1.000000
   8.73771000E+01    2.40001000E-01 
S    1    1.000000
   2.56789000E+01    5.94797000E-01 
S    1    1.000000
   3.74004000E+00    2.80802000E-01 
SP   3    1.000000
   4.21175000E+01    1.13889000E-01   3.65114000E-02 
   9.62837000E+00    9.20811000E-01   2.37153000E-01 
   2.85332000E+00   -3.27447000E-03   8.19702000E-01 
SP   1    1.000000
   9.05661000E-01    1.00000000E+00   1.00000000E+00 
SP   1    1.000000
   2.55611000E-01    1.00000000E+00   1.00000000E+00 
SP   1    1.000000
   8.45000000E-02    1.00000000E+00   1.00000000E+00 
SP   1    1.000000
   2.54518072E-02    1.00000000E+00   1.00000000E+00 
D    1    1.000000
   1.29200000E+00    1.00000000E+00 

7    0
S    1    1.000000
   4.56324000E+03    1.96665000E-03 
S    1    1.000000
   6.82024000E+02    1.52306000E-02 
S    1    1.000000
   1.54973000E+02    7.61269000E-02 
S    1    1.000000
   4.44553000E+01    2.60801000E-01 
S    1    1.000000
   1.30290000E+01    6.16462000E-01 
S    1    1.000000
   1.82773000E+00    2.21006000E-01 
SP   3    1.000000
   2.09642000E+01    1.14660000E-01   4.02487000E-02 
   4.80331000E+00    9.19999000E-01   2.37594000E-01 
   1.45933000E+00   -3.03068000E-03   8.15854000E-01 
SP   1    1.000000
   4.83456000E-01    1.00000000E+00   1.00000000E+00 
SP   1    1.000000
   1.45585000E-01    1.00000000E+00   1.00000000E+00 
SP   1    1.000000
   4.38000000E-02    1.00000000E+00   1.00000000E+00 
SP   1    1.000000
   1.31927711E-02    1.00000000E+00   1.00000000E+00 
D    1    1.000000
   6.26000000E-01    1.00000000E+00 

8    0
S    1    1.000000
   8.58850000E+03    1.89515000E-03 
S    1    1.000000
   1.29723000E+03    1.43859000E-02 
S    1    1.000000
   2.99296000E+02    7.07320000E-02 
S    1    1.000000
   8.73771000E+01    2.40001000E-01 
S    1    1.000000
   2.56789000E+01    5.94797000E-01 
S    1    1.000000
   3.74004000E+00    2.80802000E-01 
SP   3    1.000000
   4.21175000E+01    1.13889000E-01   3.65114000E-02 
   9.62837000E+00    9.20811000E-01   2.37153000E-01 
   2.85332000E+00   -3.27447000E-03   8.19702000E-01 
SP   1    1.000000
   9.05661000E-01    1.00000000E+00   1.00000000E+00 
SP   1    1.000000
   2.55611000E-01    1.00000000E+00   1.00000000E+00 
SP   1    1.000000
   8.45000000E-02    1.00000000E+00   1.00000000E+00 
SP   1    1.000000
   2.54518072E-02    1.00000000E+00   1.00000000E+00 
D    1    1.000000
   1.29200000E+00    1.00000000E+00 

9    0
S    1    1.000000
   6.29348000E+03    1.96979000E-03 
S    1    1.000000
   9.49044000E+02    1.49613000E-02 
S    1    1.000000
   2.18776000E+02    7.35006000E-02 
S    1    1.000000
   6.36916000E+01    2.48937000E-01 
S    1    1.000000
   1.88282000E+01    6.02460000E-01 
S    1    1.000000
   2.72023000E+00    2.56202000E-01 
SP   3    1.000000
   3.06331000E+01    1.11906000E-01   3.83119000E-02 
   7.02614000E+00    9.21666000E-01   2.37403000E-01 
   2.11205000E+00   -2.56919000E-03   8.17592000E-01 
SP   1    1.000000
   6.84009000E-01    1.00000000E+00   1.00000000E+00 
SP   1    1.000000
   2.00878000E-01    1.00000000E+00   1.00000000E+00 
SP   1    1.000000
   6.39000000E-02    1.00000000E+00   1.00000000E+00 
SP   1    1.000000
   1.92469880E-02    1.00000000E+00   1.00000000E+00 
D    1    1.000000
   9.13000000E-01    1.00000000E+00 

10    0
S    1    1.000000
   6.29348000E+03    1.96979000E-03 
S    1    1.000000
   9.49044000E+02    1.49613000E-02 
S    1    1.000000
   2.18776000E+02    7.35006000E-02 
S    1    1.000000
   6.36916000E+01    2.48937000E-01 
S    1    1.000000
   1.88282000E+01    6.02460000E-01 
S    1    1.000000
   2.72023000E+00    2.56202000E-01 
SP   3    1.000000
   3.06331000E+01    1.11906000E-01   3.83119000E-02 
   7.02614000E+00    9.21666000E-01   2.37403000E-01 
   2.11205000E+00   -2.56919000E-03   8.17592000E-01 
SP   1    1.000000
   6.84009000E-01    1.00000000E+00   1.00000000E+00 
SP   1    1.000000
   2.00878000E-01    1.00000000E+00   1.00000000E+00 
SP   1    1.000000
   6.39000000E-02    1.00000000E+00   1.00000000E+00 
SP   1    1.000000
   1.92469880E-02    1.00000000E+00   1.00000000E+00 
D    1    1.000000
   9.13000000E-01    1.00000000E+00 

11    0
S    1    1.000000
   4.56324000E+03    1.96665000E-03 
S    1    1.000000
   6.82024000E+02    1.52306000E-02 
S    1    1.000000
   1.54973000E+02    7.61269000E-02 
S    1    1.000000
   4.44553000E+01    2.60801000E-01 
S    1    1.000000
   1.30290000E+01    6.16462000E-01 
S    1    1.000000
   1.82773000E+00    2.21006000E-01 
SP   3    1.000000
   2.09642000E+01    1.14660000E-01   4.02487000E-02 
   4.80331000E+00    9.19999000E-01   2.37594000E-01 
   1.45933000E+00   -3.03068000E-03   8.15854000E-01 
SP   1    1.000000
   4.83456000E-01    1.00000000E+00   1.00000000E+00 
SP   1    1.000000
   1.45585000E-01    1.00000000E+00   1.00000000E+00 
SP   1    1.000000
   4.38000000E-02    1.00000000E+00   1.00000000E+00 
SP   1    1.000000
   1.31927711E-02    1.00000000E+00   1.00000000E+00 
D    1    1.000000
   6.26000000E-01    1.00000000E+00 

12    0
S    3    1.000000
   3.38650000E+01    2.54938000E-02 
   5.09479000E+00    1.90373000E-01 
   1.15879000E+00    8.52161000E-01 
S    1    1.000000
   3.25840000E-01    1.00000000E+00 
S    1    1.000000
   1.02741000E-01    1.00000000E+00 
S    1    1.000000
   3.60000000E-02    1.00000000E+00 
P    1    1.000000
   7.50000000E-01    1.00000000E+00 

[MO]
Sym=X
Ene=0.925359
Spin=Alpha
Occup=1
1    -1.71613887e-09
2    5.00797386e-08
3    -5.90164328e-08
4    1.66776928e-06
5    6.64986746e-06
6    -3.33084497e-06
7    -1.62106593e-06
8    6.17657041e-07
9    -7.7623551e-16
10    -1.94417906e-05
11    1.66785232e-05
12    -5.42461411e-06
13    -2.53451966e-15
14    0.0001494598
15    2.65920247e-05
16    0.000148470789
17    5.99518179e-16
18    0.00288112552
19    -5.53458494e-06
20    0.00121472289
21    -4.83745647e-14
22    0.000315023909
23    0.000236474523
24    -0.000201675719
25    -9.32595501e-15
26    7.61159896e-06
27    1.04504748e-16
28    -2.71529096e-06
29    4.37285688e-16
30    4.78263211e-06
31    -6.87854433e-06
32    1.15097207e-05
33    2.5094337e-05
34    -9.53874724e-05
35    -3.36436332e-06
36    8.15598879e-06
37    -1.05965079e-15
38    -1.26391899e-06
39    1.95991672e-05
40    0.000111661402
41    0.000764742786
42    1.12508207e-06
43    3.57554846e-06
44    -2.58265098e-16
45    -5.55146382e-06
46    -9.54604236e-07
47    9.75658075e-05
48    -0.000125574334
49    -8.55263374e-06
50    -4.5446601e-07
51    3.1430169e-16
52    8.93202744e-09
53    1.29004105e-07
54    2.76477852e-07
55    3.22628606e-06
56    7.12086813e-06
57    0.000120335396
58    1.44583678e-05
59    3.51001505e-05
60    -2.16320225e-05
61    -2.46148393e-15
62    -0.000446168961
63    0.000453437654
64    -0.00027276591
65    9.87342811e-16
66    0.000890624703
67    -0.000469309552
68    0.000285848371
69    -6.32412953e-15
70    0.00214892441
71    -0.00270453989
72    0.00173893164
73    -4.9480039e-14
74    -0.00139353895
75    -0.000107693232
76    -0.000232126935
77    -5.71382905e-15
78    0.000243926475
79    6.14513397e-16
80    8.00368098e-05
81    1.0991515e-15
82    -0.000127608077
83    -0.00104384945
84    -0.00794069131
85    -0.0389355535
86    -0.13250963
87    -0.327964777
88    -0.155520535
89    -0.471287984
90    -0.00159310069
91    0.000975079073
92    -9.90906083e-16
93    -0.0049392744
94    0.000742637615
95    -0.000452855163
96    -7.10144543e-16
97    0.000586078541
98    -0.000409147721
99    0.000250306292
100    -5.11228722e-15
101    -0.00323890277
102    -0.000235873812
103    0.00014227498
104    5.64969354e-15
105    -0.00755092151
106    -0.00139657961
107    0.000692634856
108    -4.6364113e-15
109    -8.60932123e-05
110    7.73365839e-16
111    7.52545766e-05
112    -1.85280087e-16
113    4.7485886e-05
114    8.07354158e-10
115    -1.97375019e-09
116    5.04223982e-08
117    -6.58244006e-08
118    1.66733646e-06
119    6.44679182e-06
120    -3.3212459e-06
121    -2.02615738e-06
122    -5.44759074e-07
123    1.89029745e-15
124    -1.64320635e-05
125    1.13431093e-05
126    -2.5677996e-06
127    -1.00724461e-15
128    -6.10275083e-05
129    -0.000236999451
130    -0.00015754599
131    9.57136364e-15
132    0.00186115708
133    -0.00111942951
134    -0.000399385522
135    -6.86141409e-14
136    0.000408308722
137    -0.000173878492
138    0.000252963295
139    -4.49750806e-14
140    -3.80072223e-06
141    9.11756824e-16
142    5.04953465e-07
143    1.14132998e-15
144    -5.55118137e-06
145    3.12352554e-08
146    2.33261809e-07
147    1.17500694e-06
148    3.87958489e-06
149    1.06643229e-05
150    8.30239208e-06
151    1.1700541e-05
152    -1.71729994e-06
153    1.63973243e-07
154    7.18966991e-16
155    -1.13542219e-05
156    5.5698746e-06
157    2.93454602e-07
158    2.90599912e-15
159    9.26239107e-05
160    -5.60677228e-05
161    -2.41275451e-05
162    -1.10626926e-15
163    0.000455616921
164    -4.22871993e-05
165    -7.21770337e-05
166    9.35745107e-15
167    0.00238355222
168    -0.000383217325
169    -7.94033952e-05
170    1.52362868e-14
171    1.60865249e-06
172    1.66489778e-16
173    -1.27085817e-06
174    5.21562399e-17
175    4.43258299e-07
176    1.31346156e-09
177    -2.50754156e-08
178    1.26553007e-07
179    -5.51631341e-07
180    6.80580036e-06
181    2.7618896e-05
182    -1.88707345e-05
183    -1.67366541e-05
184    1.49289516e-06
185    -1.76896261e-15
186    -3.91942564e-05
187    5.50538401e-05
188    5.56177463e-07
189    5.76612177e-15
190    -2.09343145e-05
191    -1.33707402e-05
192    1.89829311e-05
193    -1.40725833e-14
194    -0.000191330771
195    3.86616355e-05
196    -0.000213128367
197    4.14521227e-14
198    0.00142392896
199    -0.00233543706
200    7.26649773e-05
201    4.41594947e-14
202    -3.90123306e-06
203    3.69783338e-16
204    4.50325207e-06
205    1.22062747e-15
206    -3.15271408e-05
207    1.31337551e-09
208    -2.76141311e-08
209    1.32264659e-07
210    -6.0348818e-07
211    7.26507758e-06
212    2.9595464e-05
213    -2.02194136e-05
214    -8.70020487e-06
215    1.47644726e-05
216    -3.01557869e-15
217    -4.43339804e-05
218    2.37695131e-05
219    -5.12889332e-05
220    1.79695517e-15
221    8.02011767e-06
222    -7.65424044e-06
223    1.93279995e-05
224    -1.58932021e-14
225    -0.000193782065
226    5.91091976e-05
227    1.38489131e-05
228    3.69101347e-14
229    0.00192128932
230    -0.000379453019
231    0.000770566516
232    1.41747441e-14
233    2.04191934e-05
234    -2.09226415e-16
235    4.10655842e-06
236    -2.54246933e-17
237    2.38389912e-05
238    -3.52118675e-11
239    -2.77125775e-10
240    -1.40356059e-09
241    -1.74081242e-09
242    6.64725777e-08
243    1.08057134e-06
244    -2.91194824e-07
245    -1.28646967e-06
246    5.02661855e-08
247    -4.49327217e-16
248    6.25667604e-08
249    1.35077104e-05
250    -1.05194351e-06
251    -5.42863071e-16
252    -0.000236701842
253    0.000144731844
254    -7.93350315e-05
255    -5.27468703e-15
256    -0.00307476445
257    0.000723543633
258    -0.00041318391
259    5.28443197e-14
260    0.000115270489
261    0.000110689889
262    0.000282340788
263    2.88582844e-14
264    -5.77671661e-06
265    3.09104935e-16
266    -1.28830635e-06
267    6.45483723e-16
268    -3.0671195e-07
269    -5.93864141e-07
270    -2.44122577e-05
271    -5.53376453e-05
272    -6.98770319e-05
273    3.62590745e-06
274    -2.516366e-06
275    1.18823479e-16
[5D]