[Molden Format]
[Atoms] (Angs)
  C      1    6     -0.00714236     -1.70213747     -0.00000000
  H      2    1     -2.06882847     -1.44022412      0.00000000
  H      3    1     -0.12337987     -2.77567521      0.00000000
  H      4    1      0.04651892      1.98813947     -0.00000000
  C      5    6     -1.21953563      0.40211669      0.00000000
  O      6    8     -2.25921553      1.03043814      0.00000000
  C      7    6      1.28797806      0.34644937     -0.00000000
  O      8    8      2.31273661      1.00537216     -0.00000000
  N      9    7      0.03446295      0.97739857     -0.00000000
  N     10    7     -1.17287765     -0.98229824      0.00000000
  C     11    6      1.20107039     -1.10433419     -0.00000000
  H     12    1      2.11220096     -1.67699125     -0.00000000
[GTO]
1    0
S    1    1.000000
   4.56324000E+03    1.96665000E-03 
S    1    1.000000
   6.82024000E+02    1.52306000E-02 
S    1    1.000000
   1.54973000E+02    7.61269000E-02 
S    1    1.000000
   4.44553000E+01    2.60801000E-01 
S    1    1.000000
   1.30290000E+01    6.16462000E-01 
S    1    1.000000
   1.82773000E+00    2.21006000E-01 
SP   3    1.000000
   2.09642000E+01    1.14660000E-01   4.02487000E-02 
   4.80331000E+00    9.19999000E-01   2.37594000E-01 
   1.45933000E+00   -3.03068000E-03   8.15854000E-01 
SP   1    1.000000
   4.83456000E-01    1.00000000E+00   1.00000000E+00 
SP   1    1.000000
   1.45585000E-01    1.00000000E+00   1.00000000E+00 
SP   1    1.000000
   4.38000000E-02    1.00000000E+00   1.00000000E+00 
SP   1    1.000000
   1.31927711E-02    1.00000000E+00   1.00000000E+00 
D    1    1.000000
   6.26000000E-01    1.00000000E+00 

2    0
S    3    1.000000
   3.38650000E+01    2.54938000E-02 
   5.09479000E+00    1.90373000E-01 
   1.15879000E+00    8.52161000E-01 
S    1    1.000000
   3.25840000E-01    1.00000000E+00 
S    1    1.000000
   1.02741000E-01    1.00000000E+00 
S    1    1.000000
   3.60000000E-02    1.00000000E+00 
P    1    1.000000
   7.50000000E-01    1.00000000E+00 

3    0
S    3    1.000000
   3.38650000E+01    2.54938000E-02 
   5.09479000E+00    1.90373000E-01 
   1.15879000E+00    8.52161000E-01 
S    1    1.000000
   3.25840000E-01    1.00000000E+00 
S    1    1.000000
   1.02741000E-01    1.00000000E+00 
S    1    1.000000
   3.60000000E-02    1.00000000E+00 
P    1    1.000000
   7.50000000E-01    1.00000000E+00 

4    0
S    3    1.000000
   3.38650000E+01    2.54938000E-02 
   5.09479000E+00    1.90373000E-01 
   1.15879000E+00    8.52161000E-01 
S    1    1.000000
   3.25840000E-01    1.00000000E+00 
S    1    1.000000
   1.02741000E-01    1.00000000E+00 
S    1    1.000000
   3.60000000E-02    1.00000000E+00 
P    1    1.000000
   7.50000000E-01    1.00000000E+00 

5    0
S    1    1.000000
   4.56324000E+03    1.96665000E-03 
S    1    1.000000
   6.82024000E+02    1.52306000E-02 
S    1    1.000000
   1.54973000E+02    7.61269000E-02 
S    1    1.000000
   4.44553000E+01    2.60801000E-01 
S    1    1.000000
   1.30290000E+01    6.16462000E-01 
S    1    1.000000
   1.82773000E+00    2.21006000E-01 
SP   3    1.000000
   2.09642000E+01    1.14660000E-01   4.02487000E-02 
   4.80331000E+00    9.19999000E-01   2.37594000E-01 
   1.45933000E+00   -3.03068000E-03   8.15854000E-01 
SP   1    1.000000
   4.83456000E-01    1.00000000E+00   1.00000000E+00 
SP   1    1.000000
   1.45585000E-01    1.00000000E+00   1.00000000E+00 
SP   1    1.000000
   4.38000000E-02    1.00000000E+00   1.00000000E+00 
SP   1    1.000000
   1.31927711E-02    1.00000000E+00   1.00000000E+00 
D    1    1.000000
   6.26000000E-01    1.00000000E+00 

6    0
S    1    1.000000
   8.58850000E+03    1.89515000E-03 
S    1    1.000000
   1.29723000E+03    1.43859000E-02 
S    1    1.000000
   2.99296000E+02    7.07320000E-02 
S    1    1.000000
   8.73771000E+01    2.40001000E-01 
S    1    1.000000
   2.56789000E+01    5.94797000E-01 
S    1    1.000000
   3.74004000E+00    2.80802000E-01 
SP   3    1.000000
   4.21175000E+01    1.13889000E-01   3.65114000E-02 
   9.62837000E+00    9.20811000E-01   2.37153000E-01 
   2.85332000E+00   -3.27447000E-03   8.19702000E-01 
SP   1    1.000000
   9.05661000E-01    1.00000000E+00   1.00000000E+00 
SP   1    1.000000
   2.55611000E-01    1.00000000E+00   1.00000000E+00 
SP   1    1.000000
   8.45000000E-02    1.00000000E+00   1.00000000E+00 
SP   1    1.000000
   2.54518072E-02    1.00000000E+00   1.00000000E+00 
D    1    1.000000
   1.29200000E+00    1.00000000E+00 

7    0
S    1    1.000000
   4.56324000E+03    1.96665000E-03 
S    1    1.000000
   6.82024000E+02    1.52306000E-02 
S    1    1.000000
   1.54973000E+02    7.61269000E-02 
S    1    1.000000
   4.44553000E+01    2.60801000E-01 
S    1    1.000000
   1.30290000E+01    6.16462000E-01 
S    1    1.000000
   1.82773000E+00    2.21006000E-01 
SP   3    1.000000
   2.09642000E+01    1.14660000E-01   4.02487000E-02 
   4.80331000E+00    9.19999000E-01   2.37594000E-01 
   1.45933000E+00   -3.03068000E-03   8.15854000E-01 
SP   1    1.000000
   4.83456000E-01    1.00000000E+00   1.00000000E+00 
SP   1    1.000000
   1.45585000E-01    1.00000000E+00   1.00000000E+00 
SP   1    1.000000
   4.38000000E-02    1.00000000E+00   1.00000000E+00 
SP   1    1.000000
   1.31927711E-02    1.00000000E+00   1.00000000E+00 
D    1    1.000000
   6.26000000E-01    1.00000000E+00 

8    0
S    1    1.000000
   8.58850000E+03    1.89515000E-03 
S    1    1.000000
   1.29723000E+03    1.43859000E-02 
S    1    1.000000
   2.99296000E+02    7.07320000E-02 
S    1    1.000000
   8.73771000E+01    2.40001000E-01 
S    1    1.000000
   2.56789000E+01    5.94797000E-01 
S    1    1.000000
   3.74004000E+00    2.80802000E-01 
SP   3    1.000000
   4.21175000E+01    1.13889000E-01   3.65114000E-02 
   9.62837000E+00    9.20811000E-01   2.37153000E-01 
   2.85332000E+00   -3.27447000E-03   8.19702000E-01 
SP   1    1.000000
   9.05661000E-01    1.00000000E+00   1.00000000E+00 
SP   1    1.000000
   2.55611000E-01    1.00000000E+00   1.00000000E+00 
SP   1    1.000000
   8.45000000E-02    1.00000000E+00   1.00000000E+00 
SP   1    1.000000
   2.54518072E-02    1.00000000E+00   1.00000000E+00 
D    1    1.000000
   1.29200000E+00    1.00000000E+00 

9    0
S    1    1.000000
   6.29348000E+03    1.96979000E-03 
S    1    1.000000
   9.49044000E+02    1.49613000E-02 
S    1    1.000000
   2.18776000E+02    7.35006000E-02 
S    1    1.000000
   6.36916000E+01    2.48937000E-01 
S    1    1.000000
   1.88282000E+01    6.02460000E-01 
S    1    1.000000
   2.72023000E+00    2.56202000E-01 
SP   3    1.000000
   3.06331000E+01    1.11906000E-01   3.83119000E-02 
   7.02614000E+00    9.21666000E-01   2.37403000E-01 
   2.11205000E+00   -2.56919000E-03   8.17592000E-01 
SP   1    1.000000
   6.84009000E-01    1.00000000E+00   1.00000000E+00 
SP   1    1.000000
   2.00878000E-01    1.00000000E+00   1.00000000E+00 
SP   1    1.000000
   6.39000000E-02    1.00000000E+00   1.00000000E+00 
SP   1    1.000000
   1.92469880E-02    1.00000000E+00   1.00000000E+00 
D    1    1.000000
   9.13000000E-01    1.00000000E+00 

10    0
S    1    1.000000
   6.29348000E+03    1.96979000E-03 
S    1    1.000000
   9.49044000E+02    1.49613000E-02 
S    1    1.000000
   2.18776000E+02    7.35006000E-02 
S    1    1.000000
   6.36916000E+01    2.48937000E-01 
S    1    1.000000
   1.88282000E+01    6.02460000E-01 
S    1    1.000000
   2.72023000E+00    2.56202000E-01 
SP   3    1.000000
   3.06331000E+01    1.11906000E-01   3.83119000E-02 
   7.02614000E+00    9.21666000E-01   2.37403000E-01 
   2.11205000E+00   -2.56919000E-03   8.17592000E-01 
SP   1    1.000000
   6.84009000E-01    1.00000000E+00   1.00000000E+00 
SP   1    1.000000
   2.00878000E-01    1.00000000E+00   1.00000000E+00 
SP   1    1.000000
   6.39000000E-02    1.00000000E+00   1.00000000E+00 
SP   1    1.000000
   1.92469880E-02    1.00000000E+00   1.00000000E+00 
D    1    1.000000
   9.13000000E-01    1.00000000E+00 

11    0
S    1    1.000000
   4.56324000E+03    1.96665000E-03 
S    1    1.000000
   6.82024000E+02    1.52306000E-02 
S    1    1.000000
   1.54973000E+02    7.61269000E-02 
S    1    1.000000
   4.44553000E+01    2.60801000E-01 
S    1    1.000000
   1.30290000E+01    6.16462000E-01 
S    1    1.000000
   1.82773000E+00    2.21006000E-01 
SP   3    1.000000
   2.09642000E+01    1.14660000E-01   4.02487000E-02 
   4.80331000E+00    9.19999000E-01   2.37594000E-01 
   1.45933000E+00   -3.03068000E-03   8.15854000E-01 
SP   1    1.000000
   4.83456000E-01    1.00000000E+00   1.00000000E+00 
SP   1    1.000000
   1.45585000E-01    1.00000000E+00   1.00000000E+00 
SP   1    1.000000
   4.38000000E-02    1.00000000E+00   1.00000000E+00 
SP   1    1.000000
   1.31927711E-02    1.00000000E+00   1.00000000E+00 
D    1    1.000000
   6.26000000E-01    1.00000000E+00 

12    0
S    3    1.000000
   3.38650000E+01    2.54938000E-02 
   5.09479000E+00    1.90373000E-01 
   1.15879000E+00    8.52161000E-01 
S    1    1.000000
   3.25840000E-01    1.00000000E+00 
S    1    1.000000
   1.02741000E-01    1.00000000E+00 
S    1    1.000000
   3.60000000E-02    1.00000000E+00 
P    1    1.000000
   7.50000000E-01    1.00000000E+00 

[MO]
Sym=X
Ene=0.92401
Spin=Alpha
Occup=1
1    1.15898101e-08
2    -1.22100098e-07
3    2.98420566e-07
4    -4.76212632e-06
5    -1.86036863e-05
6    1.06950146e-05
7    -9.79239107e-07
8    -2.4504966e-06
9    -6.91100525e-17
10    4.97144641e-05
11    1.3740629e-05
12    1.53488583e-05
13    -8.38872988e-16
14    -0.000334597712
15    -2.98560665e-05
16    -0.00020029438
17    -5.08101778e-15
18    0.00206734052
19    0.000440773454
20    -0.000231400529
21    4.94888804e-14
22    0.000666250474
23    0.000276542737
24    4.8090885e-05
25    -1.07348805e-13
26    1.41480442e-05
27    -1.33423932e-17
28    3.57162774e-06
29    -1.508096e-16
30    -7.91095652e-06
31    3.55170498e-07
32    2.50785205e-05
33    -7.43143728e-06
34    0.00012241871
35    7.90280763e-07
36    1.90368783e-06
37    -2.33136572e-16
38    -1.49545299e-06
39    -7.41577962e-06
40    -0.000162192365
41    -0.000299837946
42    3.0511411e-06
43    -3.13749221e-06
44    1.5739286e-16
45    7.15917153e-06
46    -3.45111711e-08
47    7.50401063e-06
48    0.000118661665
49    -5.1348377e-06
50    -1.04352146e-06
51    -5.31779012e-17
52    -9.16201494e-10
53    2.00244035e-09
54    -5.66718543e-08
55    6.88036447e-08
56    -1.87624908e-06
57    -7.3645115e-06
58    3.7399487e-06
59    -6.03016977e-07
60    5.97458097e-07
61    8.1084844e-16
62    2.11027315e-05
63    5.11125554e-06
64    2.47784336e-06
65    -2.84255064e-15
66    -4.57191474e-05
67    -0.000266360114
68    0.000111046503
69    3.51632795e-15
70    -0.000984695733
71    -0.0011517598
72    0.000125354545
73    1.82342224e-14
74    -0.00107113517
75    -0.000245168897
76    -0.000437095281
77    5.26042507e-14
78    -3.12362683e-06
79    4.95489275e-16
80    1.49353201e-06
81    3.41458038e-16
82    5.00815982e-06
83    2.84037377e-08
84    2.19014838e-07
85    1.0527644e-06
86    3.66344513e-06
87    8.34432001e-06
88    1.71241341e-06
89    1.44764855e-05
90    -1.7580249e-06
91    -6.15062328e-07
92    -6.2581127e-16
93    8.71568211e-06
94    5.83699471e-06
95    1.23982131e-06
96    1.45101063e-15
97    -7.75427224e-05
98    -4.96459142e-05
99    1.93575542e-05
100    -4.88774986e-15
101    -0.000452376993
102    -2.56451421e-05
103    8.50730374e-05
104    6.23844873e-15
105    -0.0024891487
106    -0.00038917059
107    8.59022286e-05
108    -2.06964068e-14
109    1.701675e-06
110    5.74958961e-17
111    1.12015176e-06
112    3.3358316e-16
113    -6.63951093e-08
114    -7.8719572e-09
115    -1.20478925e-07
116    -2.34444435e-07
117    -3.05081513e-06
118    -6.3408604e-06
119    -0.000112877792
120    -1.47010928e-05
121    3.22211425e-05
122    2.49242119e-05
123    -4.46454292e-16
124    0.000416069256
125    0.000433489637
126    0.000287156204
127    3.15465436e-15
128    -0.000803801069
129    -0.000327015558
130    -0.000212190634
131    -3.99307098e-15
132    -0.000396497264
133    -0.00317675619
134    -0.00166094819
135    7.29936551e-14
136    0.00018994619
137    -0.000439866994
138    0.000744585995
139    -6.41062401e-14
140    0.000248846931
141    5.7408727e-16
142    -7.36603072e-05
143    3.97980247e-16
144    0.000112529802
145    0.00104385846
146    0.00794076078
147    0.0389358877
148    0.132510477
149    0.327965298
150    0.155500082
151    0.471306909
152    -0.00155769798
153    -0.000937586981
154    1.08711663e-15
155    0.00493804622
156    0.000723774024
157    0.00043426097
158    -5.65825104e-16
159    -0.000639090807
160    -0.000388898314
161    -0.000223590332
162    6.57349484e-15
163    0.00302016084
164    -0.000151001837
165    -0.000147232907
166    -1.35296345e-14
167    0.00642950657
168    -0.00119545433
169    -0.000375795622
170    -4.19032593e-15
171    -9.17404884e-05
172    6.04615783e-17
173    -0.000107304866
174    -1.79870942e-16
175    -4.551589e-05
176    -7.82153944e-10
177    2.43588973e-08
178    -9.54033467e-08
179    5.21696912e-07
180    -5.81678465e-06
181    -2.40125477e-05
182    1.69519959e-05
183    -1.73760928e-05
184    1.30729873e-06
185    7.64021277e-16
186    2.40810955e-05
187    5.70472627e-05
188    -8.66671109e-06
189    -4.43294621e-16
190    0.000123099413
191    -4.83527459e-05
192    -5.73135606e-05
193    6.75154352e-15
194    -0.000144621684
195    -9.83835945e-05
196    9.73010239e-05
197    -3.02036806e-14
198    -0.002175462
199    -0.00283156577
200    5.58853396e-05
201    -2.77138474e-14
202    -1.23809767e-05
203    6.3032808e-16
204    -6.281488e-06
205    2.56876979e-16
206    2.84261602e-05
207    -1.69393653e-10
208    3.71853661e-09
209    -1.79357269e-08
210    8.09330963e-08
211    -9.34938644e-07
212    -3.68441999e-06
213    2.36179023e-06
214    -5.1365045e-07
215    5.77304972e-07
216    3.43625458e-16
217    2.62435276e-06
218    4.08372146e-06
219    -2.61515687e-06
220    -3.47729244e-15
221    0.000117880885
222    9.70242313e-05
223    3.27084337e-05
224    5.55958543e-15
225    0.000667990416
226    0.000250170788
227    3.27459752e-05
228    -3.14786484e-14
229    2.49027676e-05
230    0.000256256848
231    -0.00012200872
232    9.76260344e-15
233    -4.01740436e-06
234    8.15748855e-17
235    4.81381556e-07
236    2.40187999e-16
237    -1.41850875e-06
238    1.39435841e-09
239    1.86091696e-08
240    3.94096269e-08
241    3.42911273e-07
242    -1.34294579e-06
243    -1.03359184e-05
244    7.16960794e-06
245    -7.90821733e-06
246    -1.38878663e-05
247    9.59414418e-16
248    7.68674257e-06
249    2.12694992e-05
250    7.06298917e-05
251    -3.96526996e-15
252    0.000178578946
253    -0.000131045823
254    -2.15788872e-05
255    1.08990159e-14
256    -0.00348411241
257    0.00170352795
258    -7.36094065e-05
259    -7.57557379e-14
260    0.000497271332
261    0.000309605744
262    0.000174642535
263    1.22019977e-13
264    3.97224204e-05
265    2.03811007e-16
266    2.14808724e-08
267    -1.97277986e-16
268    -3.96680634e-05
269    5.69235232e-06
270    5.3544413e-05
271    -6.90780949e-05
272    -0.00096050378
273    -1.47190453e-05
274    6.04070693e-06
275    -1.37801171e-16
[5D]