[Molden Format]
[Atoms] (Angs)
  C      1    6     -0.00714236     -1.70213747     -0.00000000
  H      2    1     -2.06882847     -1.44022412      0.00000000
  H      3    1     -0.12337987     -2.77567521      0.00000000
  H      4    1      0.04651892      1.98813947     -0.00000000
  C      5    6     -1.21953563      0.40211669      0.00000000
  O      6    8     -2.25921553      1.03043814      0.00000000
  C      7    6      1.28797806      0.34644937     -0.00000000
  O      8    8      2.31273661      1.00537216     -0.00000000
  N      9    7      0.03446295      0.97739857     -0.00000000
  N     10    7     -1.17287765     -0.98229824      0.00000000
  C     11    6      1.20107039     -1.10433419     -0.00000000
  H     12    1      2.11220096     -1.67699125     -0.00000000
[GTO]
1    0
S    1    1.000000
   4.56324000E+03    1.96665000E-03 
S    1    1.000000
   6.82024000E+02    1.52306000E-02 
S    1    1.000000
   1.54973000E+02    7.61269000E-02 
S    1    1.000000
   4.44553000E+01    2.60801000E-01 
S    1    1.000000
   1.30290000E+01    6.16462000E-01 
S    1    1.000000
   1.82773000E+00    2.21006000E-01 
SP   3    1.000000
   2.09642000E+01    1.14660000E-01   4.02487000E-02 
   4.80331000E+00    9.19999000E-01   2.37594000E-01 
   1.45933000E+00   -3.03068000E-03   8.15854000E-01 
SP   1    1.000000
   4.83456000E-01    1.00000000E+00   1.00000000E+00 
SP   1    1.000000
   1.45585000E-01    1.00000000E+00   1.00000000E+00 
SP   1    1.000000
   4.38000000E-02    1.00000000E+00   1.00000000E+00 
SP   1    1.000000
   1.31927711E-02    1.00000000E+00   1.00000000E+00 
D    1    1.000000
   6.26000000E-01    1.00000000E+00 

2    0
S    3    1.000000
   3.38650000E+01    2.54938000E-02 
   5.09479000E+00    1.90373000E-01 
   1.15879000E+00    8.52161000E-01 
S    1    1.000000
   3.25840000E-01    1.00000000E+00 
S    1    1.000000
   1.02741000E-01    1.00000000E+00 
S    1    1.000000
   3.60000000E-02    1.00000000E+00 
P    1    1.000000
   7.50000000E-01    1.00000000E+00 

3    0
S    3    1.000000
   3.38650000E+01    2.54938000E-02 
   5.09479000E+00    1.90373000E-01 
   1.15879000E+00    8.52161000E-01 
S    1    1.000000
   3.25840000E-01    1.00000000E+00 
S    1    1.000000
   1.02741000E-01    1.00000000E+00 
S    1    1.000000
   3.60000000E-02    1.00000000E+00 
P    1    1.000000
   7.50000000E-01    1.00000000E+00 

4    0
S    3    1.000000
   3.38650000E+01    2.54938000E-02 
   5.09479000E+00    1.90373000E-01 
   1.15879000E+00    8.52161000E-01 
S    1    1.000000
   3.25840000E-01    1.00000000E+00 
S    1    1.000000
   1.02741000E-01    1.00000000E+00 
S    1    1.000000
   3.60000000E-02    1.00000000E+00 
P    1    1.000000
   7.50000000E-01    1.00000000E+00 

5    0
S    1    1.000000
   4.56324000E+03    1.96665000E-03 
S    1    1.000000
   6.82024000E+02    1.52306000E-02 
S    1    1.000000
   1.54973000E+02    7.61269000E-02 
S    1    1.000000
   4.44553000E+01    2.60801000E-01 
S    1    1.000000
   1.30290000E+01    6.16462000E-01 
S    1    1.000000
   1.82773000E+00    2.21006000E-01 
SP   3    1.000000
   2.09642000E+01    1.14660000E-01   4.02487000E-02 
   4.80331000E+00    9.19999000E-01   2.37594000E-01 
   1.45933000E+00   -3.03068000E-03   8.15854000E-01 
SP   1    1.000000
   4.83456000E-01    1.00000000E+00   1.00000000E+00 
SP   1    1.000000
   1.45585000E-01    1.00000000E+00   1.00000000E+00 
SP   1    1.000000
   4.38000000E-02    1.00000000E+00   1.00000000E+00 
SP   1    1.000000
   1.31927711E-02    1.00000000E+00   1.00000000E+00 
D    1    1.000000
   6.26000000E-01    1.00000000E+00 

6    0
S    1    1.000000
   8.58850000E+03    1.89515000E-03 
S    1    1.000000
   1.29723000E+03    1.43859000E-02 
S    1    1.000000
   2.99296000E+02    7.07320000E-02 
S    1    1.000000
   8.73771000E+01    2.40001000E-01 
S    1    1.000000
   2.56789000E+01    5.94797000E-01 
S    1    1.000000
   3.74004000E+00    2.80802000E-01 
SP   3    1.000000
   4.21175000E+01    1.13889000E-01   3.65114000E-02 
   9.62837000E+00    9.20811000E-01   2.37153000E-01 
   2.85332000E+00   -3.27447000E-03   8.19702000E-01 
SP   1    1.000000
   9.05661000E-01    1.00000000E+00   1.00000000E+00 
SP   1    1.000000
   2.55611000E-01    1.00000000E+00   1.00000000E+00 
SP   1    1.000000
   8.45000000E-02    1.00000000E+00   1.00000000E+00 
SP   1    1.000000
   2.54518072E-02    1.00000000E+00   1.00000000E+00 
D    1    1.000000
   1.29200000E+00    1.00000000E+00 

7    0
S    1    1.000000
   4.56324000E+03    1.96665000E-03 
S    1    1.000000
   6.82024000E+02    1.52306000E-02 
S    1    1.000000
   1.54973000E+02    7.61269000E-02 
S    1    1.000000
   4.44553000E+01    2.60801000E-01 
S    1    1.000000
   1.30290000E+01    6.16462000E-01 
S    1    1.000000
   1.82773000E+00    2.21006000E-01 
SP   3    1.000000
   2.09642000E+01    1.14660000E-01   4.02487000E-02 
   4.80331000E+00    9.19999000E-01   2.37594000E-01 
   1.45933000E+00   -3.03068000E-03   8.15854000E-01 
SP   1    1.000000
   4.83456000E-01    1.00000000E+00   1.00000000E+00 
SP   1    1.000000
   1.45585000E-01    1.00000000E+00   1.00000000E+00 
SP   1    1.000000
   4.38000000E-02    1.00000000E+00   1.00000000E+00 
SP   1    1.000000
   1.31927711E-02    1.00000000E+00   1.00000000E+00 
D    1    1.000000
   6.26000000E-01    1.00000000E+00 

8    0
S    1    1.000000
   8.58850000E+03    1.89515000E-03 
S    1    1.000000
   1.29723000E+03    1.43859000E-02 
S    1    1.000000
   2.99296000E+02    7.07320000E-02 
S    1    1.000000
   8.73771000E+01    2.40001000E-01 
S    1    1.000000
   2.56789000E+01    5.94797000E-01 
S    1    1.000000
   3.74004000E+00    2.80802000E-01 
SP   3    1.000000
   4.21175000E+01    1.13889000E-01   3.65114000E-02 
   9.62837000E+00    9.20811000E-01   2.37153000E-01 
   2.85332000E+00   -3.27447000E-03   8.19702000E-01 
SP   1    1.000000
   9.05661000E-01    1.00000000E+00   1.00000000E+00 
SP   1    1.000000
   2.55611000E-01    1.00000000E+00   1.00000000E+00 
SP   1    1.000000
   8.45000000E-02    1.00000000E+00   1.00000000E+00 
SP   1    1.000000
   2.54518072E-02    1.00000000E+00   1.00000000E+00 
D    1    1.000000
   1.29200000E+00    1.00000000E+00 

9    0
S    1    1.000000
   6.29348000E+03    1.96979000E-03 
S    1    1.000000
   9.49044000E+02    1.49613000E-02 
S    1    1.000000
   2.18776000E+02    7.35006000E-02 
S    1    1.000000
   6.36916000E+01    2.48937000E-01 
S    1    1.000000
   1.88282000E+01    6.02460000E-01 
S    1    1.000000
   2.72023000E+00    2.56202000E-01 
SP   3    1.000000
   3.06331000E+01    1.11906000E-01   3.83119000E-02 
   7.02614000E+00    9.21666000E-01   2.37403000E-01 
   2.11205000E+00   -2.56919000E-03   8.17592000E-01 
SP   1    1.000000
   6.84009000E-01    1.00000000E+00   1.00000000E+00 
SP   1    1.000000
   2.00878000E-01    1.00000000E+00   1.00000000E+00 
SP   1    1.000000
   6.39000000E-02    1.00000000E+00   1.00000000E+00 
SP   1    1.000000
   1.92469880E-02    1.00000000E+00   1.00000000E+00 
D    1    1.000000
   9.13000000E-01    1.00000000E+00 

10    0
S    1    1.000000
   6.29348000E+03    1.96979000E-03 
S    1    1.000000
   9.49044000E+02    1.49613000E-02 
S    1    1.000000
   2.18776000E+02    7.35006000E-02 
S    1    1.000000
   6.36916000E+01    2.48937000E-01 
S    1    1.000000
   1.88282000E+01    6.02460000E-01 
S    1    1.000000
   2.72023000E+00    2.56202000E-01 
SP   3    1.000000
   3.06331000E+01    1.11906000E-01   3.83119000E-02 
   7.02614000E+00    9.21666000E-01   2.37403000E-01 
   2.11205000E+00   -2.56919000E-03   8.17592000E-01 
SP   1    1.000000
   6.84009000E-01    1.00000000E+00   1.00000000E+00 
SP   1    1.000000
   2.00878000E-01    1.00000000E+00   1.00000000E+00 
SP   1    1.000000
   6.39000000E-02    1.00000000E+00   1.00000000E+00 
SP   1    1.000000
   1.92469880E-02    1.00000000E+00   1.00000000E+00 
D    1    1.000000
   9.13000000E-01    1.00000000E+00 

11    0
S    1    1.000000
   4.56324000E+03    1.96665000E-03 
S    1    1.000000
   6.82024000E+02    1.52306000E-02 
S    1    1.000000
   1.54973000E+02    7.61269000E-02 
S    1    1.000000
   4.44553000E+01    2.60801000E-01 
S    1    1.000000
   1.30290000E+01    6.16462000E-01 
S    1    1.000000
   1.82773000E+00    2.21006000E-01 
SP   3    1.000000
   2.09642000E+01    1.14660000E-01   4.02487000E-02 
   4.80331000E+00    9.19999000E-01   2.37594000E-01 
   1.45933000E+00   -3.03068000E-03   8.15854000E-01 
SP   1    1.000000
   4.83456000E-01    1.00000000E+00   1.00000000E+00 
SP   1    1.000000
   1.45585000E-01    1.00000000E+00   1.00000000E+00 
SP   1    1.000000
   4.38000000E-02    1.00000000E+00   1.00000000E+00 
SP   1    1.000000
   1.31927711E-02    1.00000000E+00   1.00000000E+00 
D    1    1.000000
   6.26000000E-01    1.00000000E+00 

12    0
S    3    1.000000
   3.38650000E+01    2.54938000E-02 
   5.09479000E+00    1.90373000E-01 
   1.15879000E+00    8.52161000E-01 
S    1    1.000000
   3.25840000E-01    1.00000000E+00 
S    1    1.000000
   1.02741000E-01    1.00000000E+00 
S    1    1.000000
   3.60000000E-02    1.00000000E+00 
P    1    1.000000
   7.50000000E-01    1.00000000E+00 

[MO]
Sym=X
Ene=0.022614
Spin=Alpha
Occup=1
1    -1.15910196e-08
2    1.22135448e-07
3    -2.98462186e-07
4    4.76330338e-06
5    1.86083797e-05
6    -1.06973651e-05
7    9.78093615e-07
8    2.45093236e-06
9    6.85616411e-17
10    -4.9728187e-05
11    -1.37288425e-05
12    -1.53526869e-05
13    8.37082194e-16
14    0.00033470322
15    2.98748458e-05
16    0.000200399222
17    5.08144006e-15
18    -0.00206530455
19    -0.000440777255
20    0.000232258648
21    -4.95230438e-14
22    -0.000666027751
23    -0.000276375604
24    -4.82333528e-05
25    1.0734219e-13
26    -1.41426632e-05
27    1.34162204e-17
28    -3.57354515e-06
29    1.51118496e-16
30    7.91433339e-06
31    -3.60029959e-07
32    -2.50703829e-05
33    7.44916407e-06
34    -0.000122486069
35    -7.9265742e-07
36    -1.89792532e-06
37    2.32387893e-16
38    1.49455968e-06
39    7.42962418e-06
40    0.000162271212
41    0.000300378146
42    -3.0503455e-06
43    3.14001749e-06
44    -1.5757528e-16
45    -7.16309175e-06
46    3.38367544e-08
47    -7.43508055e-06
48    -0.000118750352
49    5.12879417e-06
50    1.04320013e-06
51    5.33999357e-17
52    9.2251156e-10
53    -1.91130112e-09
54    5.68671661e-08
55    -6.65243234e-08
56    1.88127936e-06
57    7.44952414e-06
58    -3.72973324e-06
59    6.27814356e-07
60    -6.12740524e-07
61    -8.12587227e-16
62    -2.14179354e-05
63    -4.79090997e-06
64    -2.67054621e-06
65    2.84324747e-15
66    4.6348344e-05
67    0.00026602849
68    -0.00011084453
69    -3.52079494e-15
70    0.00098621366
71    0.00114984882
72    -0.000124125995
73    -1.82691745e-14
74    0.0010701504
75    0.000245092753
76    0.00043693118
77    -5.26082744e-14
78    3.29595506e-06
79    -4.95055011e-16
80    -1.43698729e-06
81    -3.40681426e-16
82    -5.09831104e-06
83    -7.65861741e-07
84    -5.82894866e-06
85    -2.85599259e-05
86    -9.72787525e-05
87    -0.000240044637
88    -0.000111584449
89    -0.000347431678
90    6.32531836e-07
91    1.30393534e-06
92    6.2511106e-16
93    -1.2205175e-05
94    -5.31233517e-06
95    -1.55975379e-06
96    -1.45151198e-15
97    7.79567556e-05
98    4.93568475e-05
99    -1.91807132e-05
100    4.88413693e-15
101    0.000450088664
102    2.54784958e-05
103    -8.4972502e-05
104    -6.2344558e-15
105    0.00248381351
106    0.000388183839
107    -8.54128751e-05
108    2.06931262e-14
109    -1.76249765e-06
110    -5.69495149e-17
111    -1.06698569e-06
112    -3.33713974e-16
113    9.99428875e-08
114    7.87252563e-09
115    1.20477501e-07
116    2.34479999e-07
117    3.05076787e-06
118    6.34203676e-06
119    0.000112882318
120    1.46987427e-05
121    -3.2222566e-05
122    -2.49245906e-05
123    4.47789637e-16
124    -0.000416080761
125    -0.000433481516
126    -0.000287157947
127    -3.15536517e-15
128    0.000803757756
129    0.000326848041
130    0.000212079279
131    3.99983196e-15
132    0.000397812034
133    0.00317596455
134    0.00166066562
135    -7.30421115e-14
136    -0.000189657681
137    0.000439744043
138    -0.000744407097
139    6.40744503e-14
140    -0.000248849555
141    -5.73442991e-16
142    7.36606457e-05
143    -3.97173822e-16
144    -0.000112533696
145    -0.00104385818
146    -0.00794075864
147    -0.0389358772
148    -0.132510441
149    -0.327965209
150    -0.155500038
151    -0.471306784
152    0.00155769638
153    0.000937586864
154    -1.08660842e-15
155    -0.00493805302
156    -0.000723769909
157    -0.000434260655
158    5.67877992e-16
159    0.000639156086
160    0.000388858607
161    0.000223573231
162    -6.57427477e-15
163    -0.00301983821
164    0.000150971924
165    0.000147181878
166    1.3536242e-14
167    -0.00642782105
168    0.0011951833
169    0.000375739432
170    4.20108901e-15
171    9.17416022e-05
172    -6.03439418e-17
173    0.000107303942
174    1.79907745e-16
175    4.55161918e-05
176    7.83081684e-10
177    -2.43766065e-08
178    9.54927301e-08
179    -5.22086499e-07
180    5.82159136e-06
181    2.40320539e-05
182    -1.69653235e-05
183    1.73642644e-05
184    -1.3062437e-06
185    -7.65270824e-16
186    -2.41087794e-05
187    -5.70083542e-05
188    8.66710187e-06
189    4.47368156e-16
190    -0.000123114172
191    4.83432877e-05
192    5.73269574e-05
193    -6.76148384e-15
194    0.000144486477
195    9.84108838e-05
196    -9.74515705e-05
197    3.02329582e-14
198    0.00217646743
199    0.00282991513
200    -5.58339895e-05
201    2.77450383e-14
202    1.23782174e-05
203    -6.3006668e-16
204    6.2846679e-06
205    -2.56014568e-16
206    -2.84484264e-05
207    1.70321484e-10
208    -3.7380445e-09
209    1.80291647e-08
210    -8.13594282e-08
211    9.40071039e-07
212    3.70532766e-06
213    -2.37607425e-06
214    5.07503809e-07
215    -5.66874035e-07
216    -3.45755816e-16
217    -2.65567315e-06
218    -4.06692778e-06
219    2.57892165e-06
220    3.47856109e-15
221    -0.000117875189
222    -9.70296148e-05
223    -3.26947708e-05
224    -5.57081227e-15
225    -0.000668127154
226    -0.000250128967
227    -3.27361831e-05
228    3.15047169e-14
229    -2.35454103e-05
230    -0.000256524861
231    0.000122553079
232    -9.75258686e-15
233    4.0318291e-06
234    -8.17226794e-17
235    -4.78480238e-07
236    -2.40205902e-16
237    1.43535015e-06
238    -1.39438294e-09
239    -1.86093608e-08
240    -3.94106087e-08
241    -3.42912418e-07
242    1.34299242e-06
243    1.03366792e-05
244    -7.16981189e-06
245    7.90730651e-06
246    1.38878984e-05
247    -9.5973162e-16
248    -7.68669646e-06
249    -2.1259951e-05
250    -7.06306174e-05
251    3.96488546e-15
252    -0.000178746126
253    0.000131148041
254    2.15228333e-05
255    -1.09027396e-14
256    0.00348193929
257    -0.00170301635
258    7.33174824e-05
259    7.57930525e-14
260    -0.000497189773
261    -0.000309527468
262    -0.000174443024
263    -1.21999559e-13
264    -3.97264917e-05
265    -2.0359258e-16
266    -2.23910288e-08
267    1.97733958e-16
268    3.96678369e-05
269    -5.69277046e-06
270    -5.35616465e-05
271    6.90389828e-05
272    0.000960454175
273    1.47216033e-05
274    -6.04248319e-06
275    1.37885084e-16
[5D]