[Molden Format]
[Atoms] (Angs)
  C      1    6     -0.00714236     -1.70213747     -0.00000000
  H      2    1     -2.06882847     -1.44022412      0.00000000
  H      3    1     -0.12337987     -2.77567521      0.00000000
  H      4    1      0.04651892      1.98813947     -0.00000000
  C      5    6     -1.21953563      0.40211669      0.00000000
  O      6    8     -2.25921553      1.03043814      0.00000000
  C      7    6      1.28797806      0.34644937     -0.00000000
  O      8    8      2.31273661      1.00537216     -0.00000000
  N      9    7      0.03446295      0.97739857     -0.00000000
  N     10    7     -1.17287765     -0.98229824      0.00000000
  C     11    6      1.20107039     -1.10433419     -0.00000000
  H     12    1      2.11220096     -1.67699125     -0.00000000
[GTO]
1    0
S    1    1.000000
   4.56324000E+03    1.96665000E-03 
S    1    1.000000
   6.82024000E+02    1.52306000E-02 
S    1    1.000000
   1.54973000E+02    7.61269000E-02 
S    1    1.000000
   4.44553000E+01    2.60801000E-01 
S    1    1.000000
   1.30290000E+01    6.16462000E-01 
S    1    1.000000
   1.82773000E+00    2.21006000E-01 
SP   3    1.000000
   2.09642000E+01    1.14660000E-01   4.02487000E-02 
   4.80331000E+00    9.19999000E-01   2.37594000E-01 
   1.45933000E+00   -3.03068000E-03   8.15854000E-01 
SP   1    1.000000
   4.83456000E-01    1.00000000E+00   1.00000000E+00 
SP   1    1.000000
   1.45585000E-01    1.00000000E+00   1.00000000E+00 
SP   1    1.000000
   4.38000000E-02    1.00000000E+00   1.00000000E+00 
SP   1    1.000000
   1.31927711E-02    1.00000000E+00   1.00000000E+00 
D    1    1.000000
   6.26000000E-01    1.00000000E+00 

2    0
S    3    1.000000
   3.38650000E+01    2.54938000E-02 
   5.09479000E+00    1.90373000E-01 
   1.15879000E+00    8.52161000E-01 
S    1    1.000000
   3.25840000E-01    1.00000000E+00 
S    1    1.000000
   1.02741000E-01    1.00000000E+00 
S    1    1.000000
   3.60000000E-02    1.00000000E+00 
P    1    1.000000
   7.50000000E-01    1.00000000E+00 

3    0
S    3    1.000000
   3.38650000E+01    2.54938000E-02 
   5.09479000E+00    1.90373000E-01 
   1.15879000E+00    8.52161000E-01 
S    1    1.000000
   3.25840000E-01    1.00000000E+00 
S    1    1.000000
   1.02741000E-01    1.00000000E+00 
S    1    1.000000
   3.60000000E-02    1.00000000E+00 
P    1    1.000000
   7.50000000E-01    1.00000000E+00 

4    0
S    3    1.000000
   3.38650000E+01    2.54938000E-02 
   5.09479000E+00    1.90373000E-01 
   1.15879000E+00    8.52161000E-01 
S    1    1.000000
   3.25840000E-01    1.00000000E+00 
S    1    1.000000
   1.02741000E-01    1.00000000E+00 
S    1    1.000000
   3.60000000E-02    1.00000000E+00 
P    1    1.000000
   7.50000000E-01    1.00000000E+00 

5    0
S    1    1.000000
   4.56324000E+03    1.96665000E-03 
S    1    1.000000
   6.82024000E+02    1.52306000E-02 
S    1    1.000000
   1.54973000E+02    7.61269000E-02 
S    1    1.000000
   4.44553000E+01    2.60801000E-01 
S    1    1.000000
   1.30290000E+01    6.16462000E-01 
S    1    1.000000
   1.82773000E+00    2.21006000E-01 
SP   3    1.000000
   2.09642000E+01    1.14660000E-01   4.02487000E-02 
   4.80331000E+00    9.19999000E-01   2.37594000E-01 
   1.45933000E+00   -3.03068000E-03   8.15854000E-01 
SP   1    1.000000
   4.83456000E-01    1.00000000E+00   1.00000000E+00 
SP   1    1.000000
   1.45585000E-01    1.00000000E+00   1.00000000E+00 
SP   1    1.000000
   4.38000000E-02    1.00000000E+00   1.00000000E+00 
SP   1    1.000000
   1.31927711E-02    1.00000000E+00   1.00000000E+00 
D    1    1.000000
   6.26000000E-01    1.00000000E+00 

6    0
S    1    1.000000
   8.58850000E+03    1.89515000E-03 
S    1    1.000000
   1.29723000E+03    1.43859000E-02 
S    1    1.000000
   2.99296000E+02    7.07320000E-02 
S    1    1.000000
   8.73771000E+01    2.40001000E-01 
S    1    1.000000
   2.56789000E+01    5.94797000E-01 
S    1    1.000000
   3.74004000E+00    2.80802000E-01 
SP   3    1.000000
   4.21175000E+01    1.13889000E-01   3.65114000E-02 
   9.62837000E+00    9.20811000E-01   2.37153000E-01 
   2.85332000E+00   -3.27447000E-03   8.19702000E-01 
SP   1    1.000000
   9.05661000E-01    1.00000000E+00   1.00000000E+00 
SP   1    1.000000
   2.55611000E-01    1.00000000E+00   1.00000000E+00 
SP   1    1.000000
   8.45000000E-02    1.00000000E+00   1.00000000E+00 
SP   1    1.000000
   2.54518072E-02    1.00000000E+00   1.00000000E+00 
D    1    1.000000
   1.29200000E+00    1.00000000E+00 

7    0
S    1    1.000000
   4.56324000E+03    1.96665000E-03 
S    1    1.000000
   6.82024000E+02    1.52306000E-02 
S    1    1.000000
   1.54973000E+02    7.61269000E-02 
S    1    1.000000
   4.44553000E+01    2.60801000E-01 
S    1    1.000000
   1.30290000E+01    6.16462000E-01 
S    1    1.000000
   1.82773000E+00    2.21006000E-01 
SP   3    1.000000
   2.09642000E+01    1.14660000E-01   4.02487000E-02 
   4.80331000E+00    9.19999000E-01   2.37594000E-01 
   1.45933000E+00   -3.03068000E-03   8.15854000E-01 
SP   1    1.000000
   4.83456000E-01    1.00000000E+00   1.00000000E+00 
SP   1    1.000000
   1.45585000E-01    1.00000000E+00   1.00000000E+00 
SP   1    1.000000
   4.38000000E-02    1.00000000E+00   1.00000000E+00 
SP   1    1.000000
   1.31927711E-02    1.00000000E+00   1.00000000E+00 
D    1    1.000000
   6.26000000E-01    1.00000000E+00 

8    0
S    1    1.000000
   8.58850000E+03    1.89515000E-03 
S    1    1.000000
   1.29723000E+03    1.43859000E-02 
S    1    1.000000
   2.99296000E+02    7.07320000E-02 
S    1    1.000000
   8.73771000E+01    2.40001000E-01 
S    1    1.000000
   2.56789000E+01    5.94797000E-01 
S    1    1.000000
   3.74004000E+00    2.80802000E-01 
SP   3    1.000000
   4.21175000E+01    1.13889000E-01   3.65114000E-02 
   9.62837000E+00    9.20811000E-01   2.37153000E-01 
   2.85332000E+00   -3.27447000E-03   8.19702000E-01 
SP   1    1.000000
   9.05661000E-01    1.00000000E+00   1.00000000E+00 
SP   1    1.000000
   2.55611000E-01    1.00000000E+00   1.00000000E+00 
SP   1    1.000000
   8.45000000E-02    1.00000000E+00   1.00000000E+00 
SP   1    1.000000
   2.54518072E-02    1.00000000E+00   1.00000000E+00 
D    1    1.000000
   1.29200000E+00    1.00000000E+00 

9    0
S    1    1.000000
   6.29348000E+03    1.96979000E-03 
S    1    1.000000
   9.49044000E+02    1.49613000E-02 
S    1    1.000000
   2.18776000E+02    7.35006000E-02 
S    1    1.000000
   6.36916000E+01    2.48937000E-01 
S    1    1.000000
   1.88282000E+01    6.02460000E-01 
S    1    1.000000
   2.72023000E+00    2.56202000E-01 
SP   3    1.000000
   3.06331000E+01    1.11906000E-01   3.83119000E-02 
   7.02614000E+00    9.21666000E-01   2.37403000E-01 
   2.11205000E+00   -2.56919000E-03   8.17592000E-01 
SP   1    1.000000
   6.84009000E-01    1.00000000E+00   1.00000000E+00 
SP   1    1.000000
   2.00878000E-01    1.00000000E+00   1.00000000E+00 
SP   1    1.000000
   6.39000000E-02    1.00000000E+00   1.00000000E+00 
SP   1    1.000000
   1.92469880E-02    1.00000000E+00   1.00000000E+00 
D    1    1.000000
   9.13000000E-01    1.00000000E+00 

10    0
S    1    1.000000
   6.29348000E+03    1.96979000E-03 
S    1    1.000000
   9.49044000E+02    1.49613000E-02 
S    1    1.000000
   2.18776000E+02    7.35006000E-02 
S    1    1.000000
   6.36916000E+01    2.48937000E-01 
S    1    1.000000
   1.88282000E+01    6.02460000E-01 
S    1    1.000000
   2.72023000E+00    2.56202000E-01 
SP   3    1.000000
   3.06331000E+01    1.11906000E-01   3.83119000E-02 
   7.02614000E+00    9.21666000E-01   2.37403000E-01 
   2.11205000E+00   -2.56919000E-03   8.17592000E-01 
SP   1    1.000000
   6.84009000E-01    1.00000000E+00   1.00000000E+00 
SP   1    1.000000
   2.00878000E-01    1.00000000E+00   1.00000000E+00 
SP   1    1.000000
   6.39000000E-02    1.00000000E+00   1.00000000E+00 
SP   1    1.000000
   1.92469880E-02    1.00000000E+00   1.00000000E+00 
D    1    1.000000
   9.13000000E-01    1.00000000E+00 

11    0
S    1    1.000000
   4.56324000E+03    1.96665000E-03 
S    1    1.000000
   6.82024000E+02    1.52306000E-02 
S    1    1.000000
   1.54973000E+02    7.61269000E-02 
S    1    1.000000
   4.44553000E+01    2.60801000E-01 
S    1    1.000000
   1.30290000E+01    6.16462000E-01 
S    1    1.000000
   1.82773000E+00    2.21006000E-01 
SP   3    1.000000
   2.09642000E+01    1.14660000E-01   4.02487000E-02 
   4.80331000E+00    9.19999000E-01   2.37594000E-01 
   1.45933000E+00   -3.03068000E-03   8.15854000E-01 
SP   1    1.000000
   4.83456000E-01    1.00000000E+00   1.00000000E+00 
SP   1    1.000000
   1.45585000E-01    1.00000000E+00   1.00000000E+00 
SP   1    1.000000
   4.38000000E-02    1.00000000E+00   1.00000000E+00 
SP   1    1.000000
   1.31927711E-02    1.00000000E+00   1.00000000E+00 
D    1    1.000000
   6.26000000E-01    1.00000000E+00 

12    0
S    3    1.000000
   3.38650000E+01    2.54938000E-02 
   5.09479000E+00    1.90373000E-01 
   1.15879000E+00    8.52161000E-01 
S    1    1.000000
   3.25840000E-01    1.00000000E+00 
S    1    1.000000
   1.02741000E-01    1.00000000E+00 
S    1    1.000000
   3.60000000E-02    1.00000000E+00 
P    1    1.000000
   7.50000000E-01    1.00000000E+00 

[MO]
Sym=X
Ene=0.015689
Spin=Alpha
Occup=1
1    -1.15905962e-08
2    1.2212306e-07
3    -2.9844761e-07
4    4.76289093e-06
5    1.86067351e-05
6    -1.06965415e-05
7    9.78495327e-07
8    2.4507797e-06
9    6.87539403e-17
10    -4.9723378e-05
11    -1.37329761e-05
12    -1.53513453e-05
13    8.37710167e-16
14    0.000334666244
15    2.98682627e-05
16    0.000200362472
17    5.08129228e-15
18    -0.00206601856
19    -0.000440775947
20    0.00023195777
21    -4.95110675e-14
22    -0.000666105884
23    -0.000276434223
24    -4.81834005e-05
25    1.07344516e-13
26    -1.41445508e-05
27    1.33903343e-17
28    -3.57287303e-06
29    1.51010193e-16
30    7.91314977e-06
31    -3.58326055e-07
32    -2.50732377e-05
33    7.44294876e-06
34    -0.000122462457
35    -7.91824113e-07
36    -1.89994599e-06
37    2.32650423e-16
38    1.494873e-06
39    7.42477014e-06
40    0.000162243574
41    0.000300188747
42    -3.05062464e-06
43    3.1391322e-06
44    -1.57511326e-16
45    -7.16171757e-06
46    3.40732342e-08
47    -7.45925066e-06
48    -0.000118719261
49    5.13091357e-06
50    1.04331286e-06
51    5.33220844e-17
52    9.20299047e-10
53    -1.94325835e-09
54    5.67986851e-08
55    -6.73235498e-08
56    1.87951564e-06
57    7.41971568e-06
58    -3.73331541e-06
59    6.19119423e-07
60    -6.07381919e-07
61    -8.11977584e-16
62    -2.13074134e-05
63    -4.90323642e-06
64    -2.60297691e-06
65    2.8430033e-15
66    4.61277248e-05
67    0.000266144786
68    -0.000110915356
69    -3.51922883e-15
70    0.000985681469
71    0.00115051895
72    -0.000124556782
73    -1.82569199e-14
74    0.00107049576
75    0.000245119466
76    0.000436988746
77    -5.26068665e-14
78    3.23552997e-06
79    -4.9520731e-16
80    -1.45681425e-06
81    -3.40953757e-16
82    -5.06670065e-06
83    -5.07279044e-07
84    -3.86187825e-06
85    -1.8914799e-05
86    -6.44534275e-05
87    -0.000158801105
88    -7.3058855e-05
89    -0.000230684078
90    1.02717547e-06
91    1.06238854e-06
92    6.25356617e-16
93    -1.09816177e-05
94    -5.49630243e-06
95    -1.44757255e-06
96    -1.45133627e-15
97    7.78115832e-05
98    4.94582089e-05
99    -1.92427219e-05
100    4.88540405e-15
101    0.000450891071
102    2.55369302e-05
103    -8.50077586e-05
104    -6.23585624e-15
105    0.00248568439
106    0.000388529856
107    -8.55844672e-05
108    2.06942777e-14
109    -1.74117086e-06
110    -5.71411016e-17
111    -1.08562793e-06
112    -3.33668124e-16
113    8.8179679e-08
114    7.87232676e-09
115    1.20478007e-07
116    2.34467542e-07
117    3.05078461e-06
118    6.34162464e-06
119    0.000112880738
120    1.46995676e-05
121    -3.22220687e-05
122    -2.49244592e-05
123    4.47321436e-16
124    -0.000416076751
125    -0.000433484388
126    -0.000287157352
127    -3.15511611e-15
128    0.000803772989
129    0.000326906798
130    0.000212118336
131    3.99746151e-15
132    0.000397351045
133    0.00317624232
134    0.00166076479
135    -7.30251249e-14
136    -0.000189758855
137    0.00043978718
138    -0.000744469869
139    6.40856007e-14
140    -0.000248848649
141    -5.73668934e-16
142    7.36605312e-05
143    -3.9745661e-16
144    -0.000112532337
145    -0.00104385833
146    -0.00794075984
147    -0.0389358831
148    -0.132510461
149    -0.327965259
150    -0.155500062
151    -0.471306855
152    0.00155769703
153    0.000937586958
154    -1.08678668e-15
155    -0.00493805092
156    -0.000723771393
157    -0.000434260791
158    5.67158198e-16
159    0.000639133233
160    0.000388872552
161    0.00022357924
162    -6.57400167e-15
163    -0.00301995151
164    0.000150982421
165    0.000147199779
166    1.35339259e-14
167    -0.00642841243
168    0.0011952784
169    0.000375759156
170    4.19731528e-15
171    9.17412169e-05
172    -6.03851934e-17
173    0.000107304272
174    1.79894851e-16
175    4.55160886e-05
176    7.82756425e-10
177    -2.43703984e-08
178    9.54613941e-08
179    -5.21949924e-07
180    5.81990626e-06
181    2.40252156e-05
182    -1.69606513e-05
183    1.73684129e-05
184    -1.30661371e-06
185    -7.64832725e-16
186    -2.40990737e-05
187    -5.70220004e-05
188    8.66696534e-06
189    4.45939835e-16
190    -0.000123109004
191    4.83466069e-05
192    5.73222632e-05
193    -6.75799874e-15
194    0.000144533895
195    9.84013206e-05
196    -9.73987883e-05
197    3.0222694e-14
198    0.00217611501
199    0.00283049407
200    -5.58519981e-05
201    2.77341031e-14
202    1.23791856e-05
203    -6.30158373e-16
204    6.28355326e-06
205    -2.56316979e-16
206    -2.84406206e-05
207    1.69996158e-10
208    -3.73120446e-09
209    1.79964026e-08
210    -8.12099435e-08
211    9.38271467e-07
212    3.69799679e-06
213    -2.37106583e-06
214    5.096591e-07
215    -5.70531577e-07
216    -3.45008846e-16
217    -2.6446911e-06
218    -4.07281656e-06
219    2.59162734e-06
220    3.47811644e-15
221    -0.000117877193
222    -9.70277326e-05
223    -3.26995634e-05
224    -5.566876e-15
225    -0.000668079246
226    -0.000250143645
227    -3.27396185e-05
228    3.1495578e-14
229    -2.40213562e-05
230    -0.000256430899
231    0.000122362212
232    -9.75609963e-15
233    4.02677143e-06
234    -8.16708615e-17
235    -4.79497585e-07
236    -2.40199638e-16
237    1.42944495e-06
238    -1.39437442e-09
239    -1.86092948e-08
240    -3.94102667e-08
241    -3.42912036e-07
242    1.34297615e-06
243    1.0336413e-05
244    -7.16974078e-06
245    7.90762633e-06
246    1.38878879e-05
247    -9.59620451e-16
248    -7.68671306e-06
249    -2.12633002e-05
250    -7.06303669e-05
251    3.96502051e-15
252    -0.000178687516
253    0.000131112207
254    2.15424893e-05
255    -1.09014345e-14
256    0.00348270147
257    -0.00170319584
258    7.3419847e-05
259    7.57799728e-14
260    -0.000497218399
261    -0.000309554932
262    -0.000174512991
263    -1.22006726e-13
264    -3.97250664e-05
265    -2.03669181e-16
266    -2.20718923e-08
267    1.97574087e-16
268    3.96679186e-05
269    -5.69262417e-06
270    -5.35556068e-05
271    6.9052701e-05
272    0.000960471623
273    1.47207072e-05
274    -6.0418607e-06
275    1.37855668e-16
[5D]