[Molden Format]
[Atoms] (Angs)
  C      1    6     -0.00714236     -1.70213747     -0.00000000
  H      2    1     -2.06882847     -1.44022412      0.00000000
  H      3    1     -0.12337987     -2.77567521      0.00000000
  H      4    1      0.04651892      1.98813947     -0.00000000
  C      5    6     -1.21953563      0.40211669      0.00000000
  O      6    8     -2.25921553      1.03043814      0.00000000
  C      7    6      1.28797806      0.34644937     -0.00000000
  O      8    8      2.31273661      1.00537216     -0.00000000
  N      9    7      0.03446295      0.97739857     -0.00000000
  N     10    7     -1.17287765     -0.98229824      0.00000000
  C     11    6      1.20107039     -1.10433419     -0.00000000
  H     12    1      2.11220096     -1.67699125     -0.00000000
[GTO]
1    0
S    1    1.000000
   4.56324000E+03    1.96665000E-03 
S    1    1.000000
   6.82024000E+02    1.52306000E-02 
S    1    1.000000
   1.54973000E+02    7.61269000E-02 
S    1    1.000000
   4.44553000E+01    2.60801000E-01 
S    1    1.000000
   1.30290000E+01    6.16462000E-01 
S    1    1.000000
   1.82773000E+00    2.21006000E-01 
SP   3    1.000000
   2.09642000E+01    1.14660000E-01   4.02487000E-02 
   4.80331000E+00    9.19999000E-01   2.37594000E-01 
   1.45933000E+00   -3.03068000E-03   8.15854000E-01 
SP   1    1.000000
   4.83456000E-01    1.00000000E+00   1.00000000E+00 
SP   1    1.000000
   1.45585000E-01    1.00000000E+00   1.00000000E+00 
SP   1    1.000000
   4.38000000E-02    1.00000000E+00   1.00000000E+00 
SP   1    1.000000
   1.31927711E-02    1.00000000E+00   1.00000000E+00 
D    1    1.000000
   6.26000000E-01    1.00000000E+00 

2    0
S    3    1.000000
   3.38650000E+01    2.54938000E-02 
   5.09479000E+00    1.90373000E-01 
   1.15879000E+00    8.52161000E-01 
S    1    1.000000
   3.25840000E-01    1.00000000E+00 
S    1    1.000000
   1.02741000E-01    1.00000000E+00 
S    1    1.000000
   3.60000000E-02    1.00000000E+00 
P    1    1.000000
   7.50000000E-01    1.00000000E+00 

3    0
S    3    1.000000
   3.38650000E+01    2.54938000E-02 
   5.09479000E+00    1.90373000E-01 
   1.15879000E+00    8.52161000E-01 
S    1    1.000000
   3.25840000E-01    1.00000000E+00 
S    1    1.000000
   1.02741000E-01    1.00000000E+00 
S    1    1.000000
   3.60000000E-02    1.00000000E+00 
P    1    1.000000
   7.50000000E-01    1.00000000E+00 

4    0
S    3    1.000000
   3.38650000E+01    2.54938000E-02 
   5.09479000E+00    1.90373000E-01 
   1.15879000E+00    8.52161000E-01 
S    1    1.000000
   3.25840000E-01    1.00000000E+00 
S    1    1.000000
   1.02741000E-01    1.00000000E+00 
S    1    1.000000
   3.60000000E-02    1.00000000E+00 
P    1    1.000000
   7.50000000E-01    1.00000000E+00 

5    0
S    1    1.000000
   4.56324000E+03    1.96665000E-03 
S    1    1.000000
   6.82024000E+02    1.52306000E-02 
S    1    1.000000
   1.54973000E+02    7.61269000E-02 
S    1    1.000000
   4.44553000E+01    2.60801000E-01 
S    1    1.000000
   1.30290000E+01    6.16462000E-01 
S    1    1.000000
   1.82773000E+00    2.21006000E-01 
SP   3    1.000000
   2.09642000E+01    1.14660000E-01   4.02487000E-02 
   4.80331000E+00    9.19999000E-01   2.37594000E-01 
   1.45933000E+00   -3.03068000E-03   8.15854000E-01 
SP   1    1.000000
   4.83456000E-01    1.00000000E+00   1.00000000E+00 
SP   1    1.000000
   1.45585000E-01    1.00000000E+00   1.00000000E+00 
SP   1    1.000000
   4.38000000E-02    1.00000000E+00   1.00000000E+00 
SP   1    1.000000
   1.31927711E-02    1.00000000E+00   1.00000000E+00 
D    1    1.000000
   6.26000000E-01    1.00000000E+00 

6    0
S    1    1.000000
   8.58850000E+03    1.89515000E-03 
S    1    1.000000
   1.29723000E+03    1.43859000E-02 
S    1    1.000000
   2.99296000E+02    7.07320000E-02 
S    1    1.000000
   8.73771000E+01    2.40001000E-01 
S    1    1.000000
   2.56789000E+01    5.94797000E-01 
S    1    1.000000
   3.74004000E+00    2.80802000E-01 
SP   3    1.000000
   4.21175000E+01    1.13889000E-01   3.65114000E-02 
   9.62837000E+00    9.20811000E-01   2.37153000E-01 
   2.85332000E+00   -3.27447000E-03   8.19702000E-01 
SP   1    1.000000
   9.05661000E-01    1.00000000E+00   1.00000000E+00 
SP   1    1.000000
   2.55611000E-01    1.00000000E+00   1.00000000E+00 
SP   1    1.000000
   8.45000000E-02    1.00000000E+00   1.00000000E+00 
SP   1    1.000000
   2.54518072E-02    1.00000000E+00   1.00000000E+00 
D    1    1.000000
   1.29200000E+00    1.00000000E+00 

7    0
S    1    1.000000
   4.56324000E+03    1.96665000E-03 
S    1    1.000000
   6.82024000E+02    1.52306000E-02 
S    1    1.000000
   1.54973000E+02    7.61269000E-02 
S    1    1.000000
   4.44553000E+01    2.60801000E-01 
S    1    1.000000
   1.30290000E+01    6.16462000E-01 
S    1    1.000000
   1.82773000E+00    2.21006000E-01 
SP   3    1.000000
   2.09642000E+01    1.14660000E-01   4.02487000E-02 
   4.80331000E+00    9.19999000E-01   2.37594000E-01 
   1.45933000E+00   -3.03068000E-03   8.15854000E-01 
SP   1    1.000000
   4.83456000E-01    1.00000000E+00   1.00000000E+00 
SP   1    1.000000
   1.45585000E-01    1.00000000E+00   1.00000000E+00 
SP   1    1.000000
   4.38000000E-02    1.00000000E+00   1.00000000E+00 
SP   1    1.000000
   1.31927711E-02    1.00000000E+00   1.00000000E+00 
D    1    1.000000
   6.26000000E-01    1.00000000E+00 

8    0
S    1    1.000000
   8.58850000E+03    1.89515000E-03 
S    1    1.000000
   1.29723000E+03    1.43859000E-02 
S    1    1.000000
   2.99296000E+02    7.07320000E-02 
S    1    1.000000
   8.73771000E+01    2.40001000E-01 
S    1    1.000000
   2.56789000E+01    5.94797000E-01 
S    1    1.000000
   3.74004000E+00    2.80802000E-01 
SP   3    1.000000
   4.21175000E+01    1.13889000E-01   3.65114000E-02 
   9.62837000E+00    9.20811000E-01   2.37153000E-01 
   2.85332000E+00   -3.27447000E-03   8.19702000E-01 
SP   1    1.000000
   9.05661000E-01    1.00000000E+00   1.00000000E+00 
SP   1    1.000000
   2.55611000E-01    1.00000000E+00   1.00000000E+00 
SP   1    1.000000
   8.45000000E-02    1.00000000E+00   1.00000000E+00 
SP   1    1.000000
   2.54518072E-02    1.00000000E+00   1.00000000E+00 
D    1    1.000000
   1.29200000E+00    1.00000000E+00 

9    0
S    1    1.000000
   6.29348000E+03    1.96979000E-03 
S    1    1.000000
   9.49044000E+02    1.49613000E-02 
S    1    1.000000
   2.18776000E+02    7.35006000E-02 
S    1    1.000000
   6.36916000E+01    2.48937000E-01 
S    1    1.000000
   1.88282000E+01    6.02460000E-01 
S    1    1.000000
   2.72023000E+00    2.56202000E-01 
SP   3    1.000000
   3.06331000E+01    1.11906000E-01   3.83119000E-02 
   7.02614000E+00    9.21666000E-01   2.37403000E-01 
   2.11205000E+00   -2.56919000E-03   8.17592000E-01 
SP   1    1.000000
   6.84009000E-01    1.00000000E+00   1.00000000E+00 
SP   1    1.000000
   2.00878000E-01    1.00000000E+00   1.00000000E+00 
SP   1    1.000000
   6.39000000E-02    1.00000000E+00   1.00000000E+00 
SP   1    1.000000
   1.92469880E-02    1.00000000E+00   1.00000000E+00 
D    1    1.000000
   9.13000000E-01    1.00000000E+00 

10    0
S    1    1.000000
   6.29348000E+03    1.96979000E-03 
S    1    1.000000
   9.49044000E+02    1.49613000E-02 
S    1    1.000000
   2.18776000E+02    7.35006000E-02 
S    1    1.000000
   6.36916000E+01    2.48937000E-01 
S    1    1.000000
   1.88282000E+01    6.02460000E-01 
S    1    1.000000
   2.72023000E+00    2.56202000E-01 
SP   3    1.000000
   3.06331000E+01    1.11906000E-01   3.83119000E-02 
   7.02614000E+00    9.21666000E-01   2.37403000E-01 
   2.11205000E+00   -2.56919000E-03   8.17592000E-01 
SP   1    1.000000
   6.84009000E-01    1.00000000E+00   1.00000000E+00 
SP   1    1.000000
   2.00878000E-01    1.00000000E+00   1.00000000E+00 
SP   1    1.000000
   6.39000000E-02    1.00000000E+00   1.00000000E+00 
SP   1    1.000000
   1.92469880E-02    1.00000000E+00   1.00000000E+00 
D    1    1.000000
   9.13000000E-01    1.00000000E+00 

11    0
S    1    1.000000
   4.56324000E+03    1.96665000E-03 
S    1    1.000000
   6.82024000E+02    1.52306000E-02 
S    1    1.000000
   1.54973000E+02    7.61269000E-02 
S    1    1.000000
   4.44553000E+01    2.60801000E-01 
S    1    1.000000
   1.30290000E+01    6.16462000E-01 
S    1    1.000000
   1.82773000E+00    2.21006000E-01 
SP   3    1.000000
   2.09642000E+01    1.14660000E-01   4.02487000E-02 
   4.80331000E+00    9.19999000E-01   2.37594000E-01 
   1.45933000E+00   -3.03068000E-03   8.15854000E-01 
SP   1    1.000000
   4.83456000E-01    1.00000000E+00   1.00000000E+00 
SP   1    1.000000
   1.45585000E-01    1.00000000E+00   1.00000000E+00 
SP   1    1.000000
   4.38000000E-02    1.00000000E+00   1.00000000E+00 
SP   1    1.000000
   1.31927711E-02    1.00000000E+00   1.00000000E+00 
D    1    1.000000
   6.26000000E-01    1.00000000E+00 

12    0
S    3    1.000000
   3.38650000E+01    2.54938000E-02 
   5.09479000E+00    1.90373000E-01 
   1.15879000E+00    8.52161000E-01 
S    1    1.000000
   3.25840000E-01    1.00000000E+00 
S    1    1.000000
   1.02741000E-01    1.00000000E+00 
S    1    1.000000
   3.60000000E-02    1.00000000E+00 
P    1    1.000000
   7.50000000E-01    1.00000000E+00 

[MO]
Sym=X
Ene=1e-06
Spin=Alpha
Occup=1
1    -5.14669866e-09
2    2.78430429e-08
3    -1.2029667e-07
4    1.32121502e-06
5    5.05051824e-06
6    -3.30910229e-06
7    1.89064492e-06
8    8.78155441e-07
9    6.78987595e-16
10    -1.21186873e-05
11    -2.15273315e-05
12    -4.21785736e-06
13    2.5641528e-15
14    6.62238354e-05
15    -5.01778688e-06
16    -8.99403e-06
17    2.38232406e-15
18    -0.0035453372
19    -0.000244972758
20    -0.000870311182
21    1.1858733e-14
22    -0.000636863099
23    -0.000351488514
24    0.000139018573
25    6.84608821e-14
26    -1.42839826e-05
27    -7.85912722e-17
28    2.16249234e-07
29    -2.75083203e-16
30    5.36234528e-07
31    5.46901251e-06
32    -2.36853302e-05
33    -1.64784723e-05
34    9.32441165e-06
35    2.3258926e-06
36    -7.80083581e-06
37    1.00547128e-15
38    1.88848752e-06
39    -1.19575874e-05
40    -2.22198667e-07
41    -0.000460641508
42    -2.65476365e-06
43    -1.1711492e-06
44    1.23786921e-16
45    5.23132646e-07
46    8.06432096e-07
47    -8.46731725e-05
48    3.63348598e-05
49    9.95704638e-06
50    9.6539163e-07
51    -2.28977904e-16
52    -6.84411242e-09
53    -1.0747362e-07
54    -1.95821127e-07
55    -2.69842679e-06
56    -4.80763564e-06
57    -9.50249644e-05
58    -1.40355415e-05
59    -2.85921837e-05
60    1.7493355e-05
61    1.56999187e-15
62    0.000355836742
63    -0.000376668953
64    0.000223442165
65    7.95371514e-16
66    -0.000708272051
67    0.000537653162
68    -0.000298495748
69    3.22237474e-15
70    -0.00121392433
71    0.00288143753
72    -0.00150439384
73    3.04641858e-14
74    0.00175511619
75    0.000227570537
76    0.000438798317
77    -2.5070842e-14
78    -0.000199303798
79    -7.87063675e-16
80    -6.6821051e-05
81    -1.0993563e-15
82    0.000102353944
83    0.000860444357
84    0.0065455045
85    0.0320945527
86    0.109227561
87    0.270341459
88    0.128196892
89    0.388481412
90    0.00131421157
91    -0.000803423797
92    1.17110886e-15
93    0.00406658223
94    -0.000615471591
95    0.000372593263
96    -2.36077818e-16
97    -0.000439213902
98    0.000365372509
99    -0.000217290042
100    6.98123442e-15
101    0.00292597923
102    0.000208952728
103    -0.00016544174
104    -8.18889726e-15
105    0.00763351682
106    0.00137154216
107    -0.000619580899
108    1.55387151e-14
109    7.00045305e-05
110    -6.70046962e-16
111    -6.26676042e-05
112    -3.61222786e-17
113    -3.91057251e-05
114    3.79103586e-09
115    6.98337039e-08
116    9.11620634e-08
117    1.78141745e-06
118    2.21534025e-06
119    5.85892992e-05
120    1.10604788e-05
121    -1.65711585e-05
122    -1.36612868e-05
123    -1.30544887e-15
124    -0.000222004023
125    -0.000254761704
126    -0.000160451016
127    -9.55657392e-16
128    0.00050536163
129    0.000380495388
130    0.00024999492
131    -5.62921906e-15
132    -0.00130971019
133    0.00272121861
134    0.00126953166
135    1.5235759e-14
136    -0.00044410908
137    0.000392352419
138    -0.000630053699
139    7.3366074e-14
140    -0.000137746678
141    -1.07658247e-15
142    4.12850563e-05
143    -1.16612355e-15
144    -5.91305565e-05
145    -0.000590985153
146    -0.00449569379
147    -0.0220437358
148    -0.0750213311
149    -0.185679727
150    -0.088040078
151    -0.266830543
152    0.000883274877
153    0.000530660787
154    -1.2081042e-15
155    -0.00278621579
156    -0.00041434139
157    -0.000246089986
158    -2.07512729e-15
159    0.000285457116
160    0.000266384382
161    0.000146469845
162    -2.80953748e-15
163    -0.00208537485
164    0.000120344603
165    0.000142849529
166    -5.39547398e-17
167    -0.00560473253
168    0.00099267402
169    0.000278202495
170    -1.01872265e-14
171    5.06109907e-05
172    -1.71469072e-16
173    6.17960722e-05
174    5.88371504e-17
175    2.54025185e-05
176    -6.39904983e-10
177    6.87973509e-09
178    -5.03088227e-08
179    1.59369635e-07
180    -2.31706593e-06
181    -9.17244223e-06
182    5.95839313e-06
183    2.36333941e-05
184    -1.97071621e-06
185    1.02564663e-15
186    1.86753749e-05
187    -7.76778459e-05
188    4.44801838e-06
189    -4.50213656e-15
190    -5.24337861e-05
191    3.8395629e-05
192    1.67990071e-05
193    7.77798701e-15
194    0.000239591414
195    2.38285331e-05
196    0.000120599832
197    -1.70703892e-14
198    5.78283634e-05
199    0.00352816891
200    -9.15371656e-05
201    -2.07116846e-14
202    1.02250839e-05
203    -6.61665362e-16
204    -1.55959127e-07
205    -1.15160688e-15
206    9.89538817e-06
207    -9.86735922e-10
208    2.06575594e-08
209    -9.88737512e-08
210    4.51645531e-07
211    -5.45941351e-06
212    -2.23101157e-05
213    1.53300797e-05
214    7.46249951e-06
215    -1.24974012e-05
216    2.29124919e-15
217    3.50594269e-05
218    -2.19054753e-05
219    4.37587393e-05
220    4.87342418e-16
221    -7.33469853e-05
222    -4.86188082e-05
223    -3.44495737e-05
224    9.95355281e-15
225    -0.000218431894
226    -0.000190353724
227    -2.99543357e-05
228    -1.26045645e-14
229    -0.0015978452
230    0.000167714053
231    -0.000566116522
232    -1.72113507e-14
233    -1.45574686e-05
234    1.26286431e-16
235    -3.65762088e-06
236    -1.15019642e-16
237    -1.88477705e-05
238    -7.60362222e-10
239    -1.03067671e-08
240    -2.11539895e-08
241    -1.92697321e-07
242    7.05487344e-07
243    4.96074083e-06
244    -3.81889271e-06
245    5.53753353e-06
246    7.82090016e-06
247    -1.72766091e-16
248    -4.40326892e-06
249    -2.31759019e-05
250    -3.91185557e-05
251    2.69234759e-15
252    9.40179379e-05
253    -4.51156363e-05
254    7.76134833e-05
255    -1.82225595e-15
256    0.00450703344
257    -0.00156084562
258    0.000382266046
259    -6.72766299e-16
260    -0.000376539289
261    -0.000266520347
262    -0.000331608007
263    -9.2867456e-14
264    -1.77262145e-05
265    -3.70183228e-16
266    1.04980888e-06
267    -4.20396762e-16
268    2.27101009e-05
269    -2.73307948e-06
270    -1.01897065e-05
271    8.47228035e-05
272    0.0006013705
273    5.34400176e-06
274    -1.3455469e-06
275    -1.99345859e-17
[5D]