[Molden Format]
[Atoms] (Angs)
  C      1    6     -0.00714236     -1.70213747     -0.00000000
  H      2    1     -2.06882847     -1.44022412      0.00000000
  H      3    1     -0.12337987     -2.77567521      0.00000000
  H      4    1      0.04651892      1.98813947     -0.00000000
  C      5    6     -1.21953563      0.40211669      0.00000000
  O      6    8     -2.25921553      1.03043814      0.00000000
  C      7    6      1.28797806      0.34644937     -0.00000000
  O      8    8      2.31273661      1.00537216     -0.00000000
  N      9    7      0.03446295      0.97739857     -0.00000000
  N     10    7     -1.17287765     -0.98229824      0.00000000
  C     11    6      1.20107039     -1.10433419     -0.00000000
  H     12    1      2.11220096     -1.67699125     -0.00000000
[GTO]
1    0
S    1    1.000000
   4.56324000E+03    1.96665000E-03 
S    1    1.000000
   6.82024000E+02    1.52306000E-02 
S    1    1.000000
   1.54973000E+02    7.61269000E-02 
S    1    1.000000
   4.44553000E+01    2.60801000E-01 
S    1    1.000000
   1.30290000E+01    6.16462000E-01 
S    1    1.000000
   1.82773000E+00    2.21006000E-01 
SP   3    1.000000
   2.09642000E+01    1.14660000E-01   4.02487000E-02 
   4.80331000E+00    9.19999000E-01   2.37594000E-01 
   1.45933000E+00   -3.03068000E-03   8.15854000E-01 
SP   1    1.000000
   4.83456000E-01    1.00000000E+00   1.00000000E+00 
SP   1    1.000000
   1.45585000E-01    1.00000000E+00   1.00000000E+00 
SP   1    1.000000
   4.38000000E-02    1.00000000E+00   1.00000000E+00 
SP   1    1.000000
   1.31927711E-02    1.00000000E+00   1.00000000E+00 
D    1    1.000000
   6.26000000E-01    1.00000000E+00 

2    0
S    3    1.000000
   3.38650000E+01    2.54938000E-02 
   5.09479000E+00    1.90373000E-01 
   1.15879000E+00    8.52161000E-01 
S    1    1.000000
   3.25840000E-01    1.00000000E+00 
S    1    1.000000
   1.02741000E-01    1.00000000E+00 
S    1    1.000000
   3.60000000E-02    1.00000000E+00 
P    1    1.000000
   7.50000000E-01    1.00000000E+00 

3    0
S    3    1.000000
   3.38650000E+01    2.54938000E-02 
   5.09479000E+00    1.90373000E-01 
   1.15879000E+00    8.52161000E-01 
S    1    1.000000
   3.25840000E-01    1.00000000E+00 
S    1    1.000000
   1.02741000E-01    1.00000000E+00 
S    1    1.000000
   3.60000000E-02    1.00000000E+00 
P    1    1.000000
   7.50000000E-01    1.00000000E+00 

4    0
S    3    1.000000
   3.38650000E+01    2.54938000E-02 
   5.09479000E+00    1.90373000E-01 
   1.15879000E+00    8.52161000E-01 
S    1    1.000000
   3.25840000E-01    1.00000000E+00 
S    1    1.000000
   1.02741000E-01    1.00000000E+00 
S    1    1.000000
   3.60000000E-02    1.00000000E+00 
P    1    1.000000
   7.50000000E-01    1.00000000E+00 

5    0
S    1    1.000000
   4.56324000E+03    1.96665000E-03 
S    1    1.000000
   6.82024000E+02    1.52306000E-02 
S    1    1.000000
   1.54973000E+02    7.61269000E-02 
S    1    1.000000
   4.44553000E+01    2.60801000E-01 
S    1    1.000000
   1.30290000E+01    6.16462000E-01 
S    1    1.000000
   1.82773000E+00    2.21006000E-01 
SP   3    1.000000
   2.09642000E+01    1.14660000E-01   4.02487000E-02 
   4.80331000E+00    9.19999000E-01   2.37594000E-01 
   1.45933000E+00   -3.03068000E-03   8.15854000E-01 
SP   1    1.000000
   4.83456000E-01    1.00000000E+00   1.00000000E+00 
SP   1    1.000000
   1.45585000E-01    1.00000000E+00   1.00000000E+00 
SP   1    1.000000
   4.38000000E-02    1.00000000E+00   1.00000000E+00 
SP   1    1.000000
   1.31927711E-02    1.00000000E+00   1.00000000E+00 
D    1    1.000000
   6.26000000E-01    1.00000000E+00 

6    0
S    1    1.000000
   8.58850000E+03    1.89515000E-03 
S    1    1.000000
   1.29723000E+03    1.43859000E-02 
S    1    1.000000
   2.99296000E+02    7.07320000E-02 
S    1    1.000000
   8.73771000E+01    2.40001000E-01 
S    1    1.000000
   2.56789000E+01    5.94797000E-01 
S    1    1.000000
   3.74004000E+00    2.80802000E-01 
SP   3    1.000000
   4.21175000E+01    1.13889000E-01   3.65114000E-02 
   9.62837000E+00    9.20811000E-01   2.37153000E-01 
   2.85332000E+00   -3.27447000E-03   8.19702000E-01 
SP   1    1.000000
   9.05661000E-01    1.00000000E+00   1.00000000E+00 
SP   1    1.000000
   2.55611000E-01    1.00000000E+00   1.00000000E+00 
SP   1    1.000000
   8.45000000E-02    1.00000000E+00   1.00000000E+00 
SP   1    1.000000
   2.54518072E-02    1.00000000E+00   1.00000000E+00 
D    1    1.000000
   1.29200000E+00    1.00000000E+00 

7    0
S    1    1.000000
   4.56324000E+03    1.96665000E-03 
S    1    1.000000
   6.82024000E+02    1.52306000E-02 
S    1    1.000000
   1.54973000E+02    7.61269000E-02 
S    1    1.000000
   4.44553000E+01    2.60801000E-01 
S    1    1.000000
   1.30290000E+01    6.16462000E-01 
S    1    1.000000
   1.82773000E+00    2.21006000E-01 
SP   3    1.000000
   2.09642000E+01    1.14660000E-01   4.02487000E-02 
   4.80331000E+00    9.19999000E-01   2.37594000E-01 
   1.45933000E+00   -3.03068000E-03   8.15854000E-01 
SP   1    1.000000
   4.83456000E-01    1.00000000E+00   1.00000000E+00 
SP   1    1.000000
   1.45585000E-01    1.00000000E+00   1.00000000E+00 
SP   1    1.000000
   4.38000000E-02    1.00000000E+00   1.00000000E+00 
SP   1    1.000000
   1.31927711E-02    1.00000000E+00   1.00000000E+00 
D    1    1.000000
   6.26000000E-01    1.00000000E+00 

8    0
S    1    1.000000
   8.58850000E+03    1.89515000E-03 
S    1    1.000000
   1.29723000E+03    1.43859000E-02 
S    1    1.000000
   2.99296000E+02    7.07320000E-02 
S    1    1.000000
   8.73771000E+01    2.40001000E-01 
S    1    1.000000
   2.56789000E+01    5.94797000E-01 
S    1    1.000000
   3.74004000E+00    2.80802000E-01 
SP   3    1.000000
   4.21175000E+01    1.13889000E-01   3.65114000E-02 
   9.62837000E+00    9.20811000E-01   2.37153000E-01 
   2.85332000E+00   -3.27447000E-03   8.19702000E-01 
SP   1    1.000000
   9.05661000E-01    1.00000000E+00   1.00000000E+00 
SP   1    1.000000
   2.55611000E-01    1.00000000E+00   1.00000000E+00 
SP   1    1.000000
   8.45000000E-02    1.00000000E+00   1.00000000E+00 
SP   1    1.000000
   2.54518072E-02    1.00000000E+00   1.00000000E+00 
D    1    1.000000
   1.29200000E+00    1.00000000E+00 

9    0
S    1    1.000000
   6.29348000E+03    1.96979000E-03 
S    1    1.000000
   9.49044000E+02    1.49613000E-02 
S    1    1.000000
   2.18776000E+02    7.35006000E-02 
S    1    1.000000
   6.36916000E+01    2.48937000E-01 
S    1    1.000000
   1.88282000E+01    6.02460000E-01 
S    1    1.000000
   2.72023000E+00    2.56202000E-01 
SP   3    1.000000
   3.06331000E+01    1.11906000E-01   3.83119000E-02 
   7.02614000E+00    9.21666000E-01   2.37403000E-01 
   2.11205000E+00   -2.56919000E-03   8.17592000E-01 
SP   1    1.000000
   6.84009000E-01    1.00000000E+00   1.00000000E+00 
SP   1    1.000000
   2.00878000E-01    1.00000000E+00   1.00000000E+00 
SP   1    1.000000
   6.39000000E-02    1.00000000E+00   1.00000000E+00 
SP   1    1.000000
   1.92469880E-02    1.00000000E+00   1.00000000E+00 
D    1    1.000000
   9.13000000E-01    1.00000000E+00 

10    0
S    1    1.000000
   6.29348000E+03    1.96979000E-03 
S    1    1.000000
   9.49044000E+02    1.49613000E-02 
S    1    1.000000
   2.18776000E+02    7.35006000E-02 
S    1    1.000000
   6.36916000E+01    2.48937000E-01 
S    1    1.000000
   1.88282000E+01    6.02460000E-01 
S    1    1.000000
   2.72023000E+00    2.56202000E-01 
SP   3    1.000000
   3.06331000E+01    1.11906000E-01   3.83119000E-02 
   7.02614000E+00    9.21666000E-01   2.37403000E-01 
   2.11205000E+00   -2.56919000E-03   8.17592000E-01 
SP   1    1.000000
   6.84009000E-01    1.00000000E+00   1.00000000E+00 
SP   1    1.000000
   2.00878000E-01    1.00000000E+00   1.00000000E+00 
SP   1    1.000000
   6.39000000E-02    1.00000000E+00   1.00000000E+00 
SP   1    1.000000
   1.92469880E-02    1.00000000E+00   1.00000000E+00 
D    1    1.000000
   9.13000000E-01    1.00000000E+00 

11    0
S    1    1.000000
   4.56324000E+03    1.96665000E-03 
S    1    1.000000
   6.82024000E+02    1.52306000E-02 
S    1    1.000000
   1.54973000E+02    7.61269000E-02 
S    1    1.000000
   4.44553000E+01    2.60801000E-01 
S    1    1.000000
   1.30290000E+01    6.16462000E-01 
S    1    1.000000
   1.82773000E+00    2.21006000E-01 
SP   3    1.000000
   2.09642000E+01    1.14660000E-01   4.02487000E-02 
   4.80331000E+00    9.19999000E-01   2.37594000E-01 
   1.45933000E+00   -3.03068000E-03   8.15854000E-01 
SP   1    1.000000
   4.83456000E-01    1.00000000E+00   1.00000000E+00 
SP   1    1.000000
   1.45585000E-01    1.00000000E+00   1.00000000E+00 
SP   1    1.000000
   4.38000000E-02    1.00000000E+00   1.00000000E+00 
SP   1    1.000000
   1.31927711E-02    1.00000000E+00   1.00000000E+00 
D    1    1.000000
   6.26000000E-01    1.00000000E+00 

12    0
S    3    1.000000
   3.38650000E+01    2.54938000E-02 
   5.09479000E+00    1.90373000E-01 
   1.15879000E+00    8.52161000E-01 
S    1    1.000000
   3.25840000E-01    1.00000000E+00 
S    1    1.000000
   1.02741000E-01    1.00000000E+00 
S    1    1.000000
   3.60000000E-02    1.00000000E+00 
P    1    1.000000
   7.50000000E-01    1.00000000E+00 

[MO]
Sym=X
Ene=1.4e-05
Spin=Alpha
Occup=1
1    -5.31132157e-09
2    8.62956272e-08
3    -1.50817966e-07
4    3.09506001e-06
5    1.22187304e-05
6    -6.55783457e-06
7    -1.22569981e-06
8    1.36458961e-06
9    -7.14004016e-16
10    -3.42367185e-05
11    1.14455187e-05
12    -1.00223771e-05
13    -2.13639346e-15
14    0.000248070199
15    3.47034405e-05
16    0.000204439815
17    2.18358811e-15
18    0.00207451291
19    -0.000145361657
20    0.0012252745
21    -6.15970672e-14
22    8.68945747e-05
23    0.000136300724
24    -0.000206502233
25    2.52820752e-14
26    2.71937736e-06
27    1.03325496e-16
28    -3.7098091e-06
29    4.62543807e-16
30    7.04931564e-06
31    -6.63466304e-06
32    2.9407005e-06
33    2.61550404e-05
34    -0.000129354572
35    -3.44107328e-06
36    7.12779621e-06
37    -9.30577656e-16
38    -7.2298241e-07
39    2.09399226e-05
40    0.000157427735
41    0.000820389503
42    9.68208838e-08
43    4.38744177e-06
44    -2.94901553e-16
45    -7.5392895e-06
46    -8.94119297e-07
47    9.01197656e-05
48    -0.00015678137
49    -6.4767417e-06
50    -9.9176115e-08
51    3.14903473e-16
52    8.75997577e-09
53    1.2167624e-07
54    2.80152188e-07
55    3.03707011e-06
56    7.34794192e-06
57    0.000116434758
58    1.25195615e-05
59    3.34712265e-05
60    -2.06999108e-05
61    -2.59156351e-15
62    -0.000429734776
63    0.000428293482
64    -0.000259405456
65    1.83972722e-15
66    0.000858962134
67    -0.000360295692
68    0.000235721945
69    -7.1138817e-15
70    0.00235047918
71    -0.00219813367
72    0.00160888685
73    -5.27098943e-14
74    -0.000980762292
75    -2.41723928e-05
76    -8.11418047e-05
77    -2.21394262e-14
78    0.00023226718
79    4.25131807e-16
80    7.54106066e-05
81    9.33596002e-16
82    -0.00012258117
83    -0.000989714973
84    -0.00752888459
85    -0.0369163369
86    -0.125637643
87    -0.310956198
88    -0.147454372
89    -0.446847312
90    -0.00150990918
91    0.000924698137
92    -7.40574276e-16
93    -0.00468584934
94    0.000702262208
95    -0.0004297601
96    -1.13456082e-15
97    0.000580328657
98    -0.000372144041
99    0.000231169709
100    -3.29338768e-15
101    -0.00292710116
102    -0.000215487114
103    0.000107852082
104    3.37355576e-15
105    -0.00636800547
106    -0.00120042981
107    0.000629401713
108    2.18309964e-15
109    -8.21685692e-05
110    7.14975128e-16
111    7.09951144e-05
112    -2.81710012e-16
113    4.50439427e-05
114    3.2678345e-09
115    3.64267625e-08
116    1.22332807e-07
117    9.07390443e-07
118    3.5965015e-06
119    4.19942719e-05
120    1.52424348e-06
121    -1.21635983e-05
122    -8.43947252e-06
123    1.93416945e-15
124    -0.000147840863
125    -0.000127043996
126    -9.37165284e-05
127    -1.95780902e-15
128    0.000197652187
129    -0.000120754
130    -8.19225452e-05
131    1.0344233e-14
132    0.0018906601
133    -5.15306838e-05
134    0.00014931652
135    -8.82585906e-14
136    0.000326749564
137    -2.50335761e-05
138    3.15150026e-06
139    -2.22640157e-14
140    -8.27076549e-05
141    6.81972568e-16
142    2.38940811e-05
143    9.55619307e-16
144    -4.1034496e-05
145    -0.000331794671
146    -0.00252400734
147    -0.0123759214
148    -0.042119077
149    -0.104244302
150    -0.0494228757
151    -0.149809102
152    0.000493536627
153    0.000298197916
154    3.36099536e-16
155    -0.00158048353
156    -0.000224794091
157    -0.000137765709
158    2.93513349e-15
159    0.000290975347
160    7.04644081e-05
161    4.81993715e-05
162    -3.13848675e-15
163    -0.000528071643
164    7.9070329e-06
165    -2.16305201e-05
166    1.31729221e-14
167    0.000216092245
168    1.66737581e-05
169    4.41740197e-05
170    1.57780257e-14
171    3.06879046e-05
172    1.38634432e-16
173    3.29053941e-05
174    1.0662876e-16
175    1.48889696e-05
176    1.49396653e-09
177    -3.15180428e-08
178    1.50315869e-07
179    -6.88857025e-07
180    8.30184353e-06
181    3.38194968e-05
182    -2.32806689e-05
183    -1.03449843e-05
184    9.99892741e-07
185    -1.9200771e-15
186    -4.48162441e-05
187    3.40639244e-05
188    3.28232442e-06
189    5.60795392e-15
190    -5.89796141e-05
191    2.69327722e-06
192    3.62172791e-05
193    -1.54888486e-14
194    -0.000135433925
195    6.79307103e-05
196    -0.000233003882
197    4.89032593e-14
198    0.00204161227
199    -0.00131419502
200    5.1130943e-05
201    5.06787281e-14
202    2.36815522e-07
203    1.50232781e-16
204    6.26644734e-06
205    1.07565797e-15
206    -3.89280346e-05
207    1.2990992e-09
208    -2.73638691e-08
209    1.31105666e-07
210    -5.97913015e-07
211    7.18544528e-06
212    2.9231587e-05
213    -1.99214229e-05
214    -8.08565279e-06
215    1.38151379e-05
216    -2.9683959e-15
217    -4.28686534e-05
218    2.12384669e-05
219    -4.7797311e-05
220    2.809119e-15
221    -2.98681431e-05
222    -3.80995226e-05
223    7.92803682e-06
224    -1.6836131e-14
225    -0.0003960732
226    -2.34816457e-05
227    2.7212118e-06
228    4.500215e-14
229    0.00181371766
230    -0.000441230696
231    0.000769382372
232    1.03361528e-14
233    2.0637131e-05
234    -2.24305258e-16
235    3.74053227e-06
236    -1.00457488e-16
237    2.30534037e-05
238    -4.76627531e-10
239    -6.17827998e-09
240    -1.3858388e-08
241    -1.10655994e-07
242    4.89923608e-07
243    4.31013018e-06
244    -2.55518337e-06
245    1.29414185e-06
246    4.46236792e-06
247    -7.31002035e-16
248    -2.38415909e-06
249    6.0458773e-06
250    -2.34493833e-05
251    7.45784475e-16
252    -0.000281191449
253    0.000178881905
254    -6.83604469e-05
255    -8.46569976e-15
256    -0.00180774105
257    0.000144492451
258    -0.000368353302
259    7.41847532e-14
260    -4.87823154e-05
261    6.53027329e-06
262    0.000212180234
263    -1.14265779e-14
264    -1.8104144e-05
265    2.28284004e-16
266    -1.22831148e-06
267    6.74714286e-16
268    1.23189782e-05
269    -2.37255987e-06
270    -4.01668457e-05
271    -3.05086184e-05
272    0.000239074722
273    8.11676118e-06
274    -4.30607914e-06
275    1.56464789e-16
[5D]