[Molden Format]
[Atoms] (Angs)
  C      1    6     -0.00714236     -1.70213747     -0.00000000
  H      2    1     -2.06882847     -1.44022412      0.00000000
  H      3    1     -0.12337987     -2.77567521      0.00000000
  H      4    1      0.04651892      1.98813947     -0.00000000
  C      5    6     -1.21953563      0.40211669      0.00000000
  O      6    8     -2.25921553      1.03043814      0.00000000
  C      7    6      1.28797806      0.34644937     -0.00000000
  O      8    8      2.31273661      1.00537216     -0.00000000
  N      9    7      0.03446295      0.97739857     -0.00000000
  N     10    7     -1.17287765     -0.98229824      0.00000000
  C     11    6      1.20107039     -1.10433419     -0.00000000
  H     12    1      2.11220096     -1.67699125     -0.00000000
[GTO]
1    0
S    1    1.000000
   4.56324000E+03    1.96665000E-03 
S    1    1.000000
   6.82024000E+02    1.52306000E-02 
S    1    1.000000
   1.54973000E+02    7.61269000E-02 
S    1    1.000000
   4.44553000E+01    2.60801000E-01 
S    1    1.000000
   1.30290000E+01    6.16462000E-01 
S    1    1.000000
   1.82773000E+00    2.21006000E-01 
SP   3    1.000000
   2.09642000E+01    1.14660000E-01   4.02487000E-02 
   4.80331000E+00    9.19999000E-01   2.37594000E-01 
   1.45933000E+00   -3.03068000E-03   8.15854000E-01 
SP   1    1.000000
   4.83456000E-01    1.00000000E+00   1.00000000E+00 
SP   1    1.000000
   1.45585000E-01    1.00000000E+00   1.00000000E+00 
SP   1    1.000000
   4.38000000E-02    1.00000000E+00   1.00000000E+00 
SP   1    1.000000
   1.31927711E-02    1.00000000E+00   1.00000000E+00 
D    1    1.000000
   6.26000000E-01    1.00000000E+00 

2    0
S    3    1.000000
   3.38650000E+01    2.54938000E-02 
   5.09479000E+00    1.90373000E-01 
   1.15879000E+00    8.52161000E-01 
S    1    1.000000
   3.25840000E-01    1.00000000E+00 
S    1    1.000000
   1.02741000E-01    1.00000000E+00 
S    1    1.000000
   3.60000000E-02    1.00000000E+00 
P    1    1.000000
   7.50000000E-01    1.00000000E+00 

3    0
S    3    1.000000
   3.38650000E+01    2.54938000E-02 
   5.09479000E+00    1.90373000E-01 
   1.15879000E+00    8.52161000E-01 
S    1    1.000000
   3.25840000E-01    1.00000000E+00 
S    1    1.000000
   1.02741000E-01    1.00000000E+00 
S    1    1.000000
   3.60000000E-02    1.00000000E+00 
P    1    1.000000
   7.50000000E-01    1.00000000E+00 

4    0
S    3    1.000000
   3.38650000E+01    2.54938000E-02 
   5.09479000E+00    1.90373000E-01 
   1.15879000E+00    8.52161000E-01 
S    1    1.000000
   3.25840000E-01    1.00000000E+00 
S    1    1.000000
   1.02741000E-01    1.00000000E+00 
S    1    1.000000
   3.60000000E-02    1.00000000E+00 
P    1    1.000000
   7.50000000E-01    1.00000000E+00 

5    0
S    1    1.000000
   4.56324000E+03    1.96665000E-03 
S    1    1.000000
   6.82024000E+02    1.52306000E-02 
S    1    1.000000
   1.54973000E+02    7.61269000E-02 
S    1    1.000000
   4.44553000E+01    2.60801000E-01 
S    1    1.000000
   1.30290000E+01    6.16462000E-01 
S    1    1.000000
   1.82773000E+00    2.21006000E-01 
SP   3    1.000000
   2.09642000E+01    1.14660000E-01   4.02487000E-02 
   4.80331000E+00    9.19999000E-01   2.37594000E-01 
   1.45933000E+00   -3.03068000E-03   8.15854000E-01 
SP   1    1.000000
   4.83456000E-01    1.00000000E+00   1.00000000E+00 
SP   1    1.000000
   1.45585000E-01    1.00000000E+00   1.00000000E+00 
SP   1    1.000000
   4.38000000E-02    1.00000000E+00   1.00000000E+00 
SP   1    1.000000
   1.31927711E-02    1.00000000E+00   1.00000000E+00 
D    1    1.000000
   6.26000000E-01    1.00000000E+00 

6    0
S    1    1.000000
   8.58850000E+03    1.89515000E-03 
S    1    1.000000
   1.29723000E+03    1.43859000E-02 
S    1    1.000000
   2.99296000E+02    7.07320000E-02 
S    1    1.000000
   8.73771000E+01    2.40001000E-01 
S    1    1.000000
   2.56789000E+01    5.94797000E-01 
S    1    1.000000
   3.74004000E+00    2.80802000E-01 
SP   3    1.000000
   4.21175000E+01    1.13889000E-01   3.65114000E-02 
   9.62837000E+00    9.20811000E-01   2.37153000E-01 
   2.85332000E+00   -3.27447000E-03   8.19702000E-01 
SP   1    1.000000
   9.05661000E-01    1.00000000E+00   1.00000000E+00 
SP   1    1.000000
   2.55611000E-01    1.00000000E+00   1.00000000E+00 
SP   1    1.000000
   8.45000000E-02    1.00000000E+00   1.00000000E+00 
SP   1    1.000000
   2.54518072E-02    1.00000000E+00   1.00000000E+00 
D    1    1.000000
   1.29200000E+00    1.00000000E+00 

7    0
S    1    1.000000
   4.56324000E+03    1.96665000E-03 
S    1    1.000000
   6.82024000E+02    1.52306000E-02 
S    1    1.000000
   1.54973000E+02    7.61269000E-02 
S    1    1.000000
   4.44553000E+01    2.60801000E-01 
S    1    1.000000
   1.30290000E+01    6.16462000E-01 
S    1    1.000000
   1.82773000E+00    2.21006000E-01 
SP   3    1.000000
   2.09642000E+01    1.14660000E-01   4.02487000E-02 
   4.80331000E+00    9.19999000E-01   2.37594000E-01 
   1.45933000E+00   -3.03068000E-03   8.15854000E-01 
SP   1    1.000000
   4.83456000E-01    1.00000000E+00   1.00000000E+00 
SP   1    1.000000
   1.45585000E-01    1.00000000E+00   1.00000000E+00 
SP   1    1.000000
   4.38000000E-02    1.00000000E+00   1.00000000E+00 
SP   1    1.000000
   1.31927711E-02    1.00000000E+00   1.00000000E+00 
D    1    1.000000
   6.26000000E-01    1.00000000E+00 

8    0
S    1    1.000000
   8.58850000E+03    1.89515000E-03 
S    1    1.000000
   1.29723000E+03    1.43859000E-02 
S    1    1.000000
   2.99296000E+02    7.07320000E-02 
S    1    1.000000
   8.73771000E+01    2.40001000E-01 
S    1    1.000000
   2.56789000E+01    5.94797000E-01 
S    1    1.000000
   3.74004000E+00    2.80802000E-01 
SP   3    1.000000
   4.21175000E+01    1.13889000E-01   3.65114000E-02 
   9.62837000E+00    9.20811000E-01   2.37153000E-01 
   2.85332000E+00   -3.27447000E-03   8.19702000E-01 
SP   1    1.000000
   9.05661000E-01    1.00000000E+00   1.00000000E+00 
SP   1    1.000000
   2.55611000E-01    1.00000000E+00   1.00000000E+00 
SP   1    1.000000
   8.45000000E-02    1.00000000E+00   1.00000000E+00 
SP   1    1.000000
   2.54518072E-02    1.00000000E+00   1.00000000E+00 
D    1    1.000000
   1.29200000E+00    1.00000000E+00 

9    0
S    1    1.000000
   6.29348000E+03    1.96979000E-03 
S    1    1.000000
   9.49044000E+02    1.49613000E-02 
S    1    1.000000
   2.18776000E+02    7.35006000E-02 
S    1    1.000000
   6.36916000E+01    2.48937000E-01 
S    1    1.000000
   1.88282000E+01    6.02460000E-01 
S    1    1.000000
   2.72023000E+00    2.56202000E-01 
SP   3    1.000000
   3.06331000E+01    1.11906000E-01   3.83119000E-02 
   7.02614000E+00    9.21666000E-01   2.37403000E-01 
   2.11205000E+00   -2.56919000E-03   8.17592000E-01 
SP   1    1.000000
   6.84009000E-01    1.00000000E+00   1.00000000E+00 
SP   1    1.000000
   2.00878000E-01    1.00000000E+00   1.00000000E+00 
SP   1    1.000000
   6.39000000E-02    1.00000000E+00   1.00000000E+00 
SP   1    1.000000
   1.92469880E-02    1.00000000E+00   1.00000000E+00 
D    1    1.000000
   9.13000000E-01    1.00000000E+00 

10    0
S    1    1.000000
   6.29348000E+03    1.96979000E-03 
S    1    1.000000
   9.49044000E+02    1.49613000E-02 
S    1    1.000000
   2.18776000E+02    7.35006000E-02 
S    1    1.000000
   6.36916000E+01    2.48937000E-01 
S    1    1.000000
   1.88282000E+01    6.02460000E-01 
S    1    1.000000
   2.72023000E+00    2.56202000E-01 
SP   3    1.000000
   3.06331000E+01    1.11906000E-01   3.83119000E-02 
   7.02614000E+00    9.21666000E-01   2.37403000E-01 
   2.11205000E+00   -2.56919000E-03   8.17592000E-01 
SP   1    1.000000
   6.84009000E-01    1.00000000E+00   1.00000000E+00 
SP   1    1.000000
   2.00878000E-01    1.00000000E+00   1.00000000E+00 
SP   1    1.000000
   6.39000000E-02    1.00000000E+00   1.00000000E+00 
SP   1    1.000000
   1.92469880E-02    1.00000000E+00   1.00000000E+00 
D    1    1.000000
   9.13000000E-01    1.00000000E+00 

11    0
S    1    1.000000
   4.56324000E+03    1.96665000E-03 
S    1    1.000000
   6.82024000E+02    1.52306000E-02 
S    1    1.000000
   1.54973000E+02    7.61269000E-02 
S    1    1.000000
   4.44553000E+01    2.60801000E-01 
S    1    1.000000
   1.30290000E+01    6.16462000E-01 
S    1    1.000000
   1.82773000E+00    2.21006000E-01 
SP   3    1.000000
   2.09642000E+01    1.14660000E-01   4.02487000E-02 
   4.80331000E+00    9.19999000E-01   2.37594000E-01 
   1.45933000E+00   -3.03068000E-03   8.15854000E-01 
SP   1    1.000000
   4.83456000E-01    1.00000000E+00   1.00000000E+00 
SP   1    1.000000
   1.45585000E-01    1.00000000E+00   1.00000000E+00 
SP   1    1.000000
   4.38000000E-02    1.00000000E+00   1.00000000E+00 
SP   1    1.000000
   1.31927711E-02    1.00000000E+00   1.00000000E+00 
D    1    1.000000
   6.26000000E-01    1.00000000E+00 

12    0
S    3    1.000000
   3.38650000E+01    2.54938000E-02 
   5.09479000E+00    1.90373000E-01 
   1.15879000E+00    8.52161000E-01 
S    1    1.000000
   3.25840000E-01    1.00000000E+00 
S    1    1.000000
   1.02741000E-01    1.00000000E+00 
S    1    1.000000
   3.60000000E-02    1.00000000E+00 
P    1    1.000000
   7.50000000E-01    1.00000000E+00 

[MO]
Sym=X
Ene=9e-06
Spin=Alpha
Occup=1
1    2.14755318e-09
2    -5.46024449e-08
3    7.01143846e-08
4    -1.84436195e-06
5    -7.33964928e-06
6    3.72773435e-06
7    1.58338456e-06
8    -7.0869577e-07
9    7.7311498e-16
10    2.12839237e-05
11    -1.61540085e-05
12    5.99375748e-06
13    2.50144121e-15
14    -0.000161845108
15    -2.76879259e-05
16    -0.000155843677
17    -7.8875839e-16
18    -0.00280195083
19    2.19833751e-05
20    -0.00122251391
21    5.01881174e-14
22    -0.000289935428
23    -0.000225987303
24    0.000203330269
25    5.31247323e-15
26    -7.07819454e-06
27    -1.04929958e-16
28    2.84671626e-06
29    -4.42610224e-16
30    -5.07459e-06
31    6.88700877e-06
32    -1.05656008e-05
33    -2.5354243e-05
34    9.98905013e-05
35    3.39151768e-06
36    -8.07924724e-06
37    1.0502102e-15
38    1.20721787e-06
39    -1.98623177e-05
40    -0.000117637713
41    -0.000775401898
42    -1.0104089e-06
43    -3.69016947e-06
44    2.63960106e-16
45    5.8148243e-06
46    9.52650883e-07
47    -9.72177239e-05
48    0.00012991609
49    8.35500744e-06
50    4.15198061e-07
51    -3.16067646e-16
52    -8.96000249e-09
53    -1.28839471e-07
54    -2.78400581e-07
55    -3.22146979e-06
56    -7.18594066e-06
57    -0.00012052644
58    -1.43086931e-05
59    -3.50982016e-05
60    2.16392506e-05
61    2.49003513e-15
62    0.00044664577
63    -0.000452930915
64    0.000272668338
65    -1.09275805e-15
66    -0.000891710669
67    0.000459040179
68    -0.000281504187
69    6.45097605e-15
70    -0.00218418256
71    0.00265966392
72    -0.00173304089
73    5.01261861e-14
74    0.00135258593
75    9.84668302e-05
76    0.000215649838
77    7.67339414e-15
78    -0.000243873104
79    -5.95590196e-16
80    -7.9925292e-05
81    -1.08564009e-15
82    0.000127706099
83    0.00104312317
84    0.00793516647
85    0.0389084627
86    0.132417435
87    0.327736564
88    0.155412233
89    0.470960134
90    0.001591925
91    -0.000974422602
92    9.66856116e-16
93    0.00493615807
94    -0.000741902274
95    0.000452585895
96    7.6381125e-16
97    -0.000588564584
98    0.000407009508
99    -0.000249409325
100    4.92628113e-15
101    0.00321976015
102    0.000234752207
103    -0.000139000343
104    -5.41289577e-15
105    0.0074527482
106    0.00138108
107    -0.00068894578
108    3.86065078e-15
109    8.60967411e-05
110    -7.70680826e-16
111    -7.5160328e-05
112    1.97602565e-16
113    -4.74552765e-05
114    -1.10062629e-09
115    -2.5247135e-09
116    -5.91383163e-08
117    -4.80985215e-08
118    -1.90285847e-06
119    -1.06556624e-05
120    2.77018746e-06
121    3.22745655e-06
122    1.47471966e-06
123    -1.905645e-15
124    3.19511326e-05
125    4.84555983e-06
126    1.32846222e-05
127    1.12429581e-15
128    3.09816919e-05
129    0.000224627878
130    0.000149515823
131    -9.71374279e-15
132    -0.00187466019
133    0.00100007147
134    0.000337109412
135    7.12909479e-14
136    -0.000400934138
137    0.000157338523
138    -0.000224994046
139    4.25508637e-14
140    1.30867246e-05
141    -8.89692697e-16
142    -3.25410252e-06
143    -1.12567939e-15
144    9.74768668e-06
145    3.89326447e-05
146    0.000296169804
147    0.0014521765
148    0.00494231041
149    0.0122312264
150    0.00579601825
151    0.0175806693
152    -5.64277213e-05
153    -3.51609469e-05
154    -6.77887474e-16
155    0.000195667596
156    2.14501486e-05
157    1.59163066e-05
158    -2.92509466e-15
159    -0.000116414563
160    4.15123396e-05
161    1.57648296e-05
162    1.35086571e-15
163    -0.000342566619
164    3.66213239e-05
165    6.66310133e-05
166    -9.85594833e-15
167    -0.0021418987
168    0.00033832786
169    6.53208329e-05
170    -1.53820815e-14
171    -5.03190714e-06
172    -1.64116934e-16
173    -2.73537077e-06
174    -5.88338979e-17
175    -2.14191032e-06
176    -1.34174162e-09
177    2.5967182e-08
178    -1.30025924e-07
179    5.70720225e-07
180    -7.01817987e-06
181    -2.8495962e-05
182    1.94903486e-05
183    1.60763988e-05
184    -1.44305769e-06
185    1.79624845e-15
186    4.00658155e-05
187    -5.28860892e-05
188    -8.79290201e-07
189    -5.77865072e-15
190    2.55146303e-05
191    1.1556572e-05
192    -2.11090337e-05
193    1.43147909e-14
194    0.000185799194
195    -4.23070375e-05
196    0.000216611792
197    -4.25506448e-14
198    -0.00150413973
199    0.00222811656
200    -7.05283259e-05
201    -4.51631929e-14
202    3.43637291e-06
203    -3.45997568e-16
204    -4.73458185e-06
205    -1.21018856e-15
206    3.25662295e-05
207    -1.31878327e-09
208    2.77336907e-08
209    -1.3284198e-07
210    6.06088644e-07
211    -7.29491355e-06
212    -2.97123696e-05
213    2.02934828e-05
214    8.67496971e-06
215    -1.47326359e-05
216    3.02630388e-15
217    4.44010474e-05
218    -2.36005185e-05
219    5.11555801e-05
220    -1.92549913e-15
221    -3.61441734e-06
222    1.12705076e-05
223    -1.80936319e-05
224    1.60896491e-14
225    0.00021858096
226    -4.97299447e-05
227    -1.26169619e-05
228    -3.8059412e-14
229    -0.00191902104
230    0.000388753857
231    -0.000774583781
232    -1.38004608e-14
233    -2.05549222e-05
234    2.12125554e-16
235    -4.08572858e-06
236    3.43724183e-17
237    -2.38753287e-05
238    8.72342193e-11
239    9.71552756e-10
240    2.87361644e-09
241    1.45393676e-08
242    -1.16554081e-07
243    -1.46562479e-06
244    5.58610184e-07
245    9.90385102e-07
246    -5.68620267e-07
247    4.84825964e-16
248    2.24398061e-07
249    -1.27043767e-05
250    3.68759581e-06
251    3.94474112e-16
252    0.000243202684
253    -0.000149522513
254    7.84742813e-05
255    5.67783665e-15
256    0.00294257133
257    -0.000659452287
258    0.000410148405
259    -5.56352146e-14
260    -9.66286398e-05
261    -9.90561805e-05
262    -0.000275625214
263    -2.42835652e-14
264    7.25540084e-06
265    -3.01281948e-16
266    1.28821048e-06
267    -6.52397703e-16
268    -1.1741822e-06
269    8.05927431e-07
270    2.63938871e-05
271    5.27206246e-05
272    3.39758441e-05
273    -4.17279527e-06
274    2.74009265e-06
275    -1.23884355e-16
[5D]