[Molden Format]
[Atoms] (Angs)
  C      1    6     -0.00714236     -1.70213747     -0.00000000
  H      2    1     -2.06882847     -1.44022412      0.00000000
  H      3    1     -0.12337987     -2.77567521      0.00000000
  H      4    1      0.04651892      1.98813947     -0.00000000
  C      5    6     -1.21953563      0.40211669      0.00000000
  O      6    8     -2.25921553      1.03043814      0.00000000
  C      7    6      1.28797806      0.34644937     -0.00000000
  O      8    8      2.31273661      1.00537216     -0.00000000
  N      9    7      0.03446295      0.97739857     -0.00000000
  N     10    7     -1.17287765     -0.98229824      0.00000000
  C     11    6      1.20107039     -1.10433419     -0.00000000
  H     12    1      2.11220096     -1.67699125     -0.00000000
[GTO]
1    0
S    1    1.000000
   4.56324000E+03    1.96665000E-03 
S    1    1.000000
   6.82024000E+02    1.52306000E-02 
S    1    1.000000
   1.54973000E+02    7.61269000E-02 
S    1    1.000000
   4.44553000E+01    2.60801000E-01 
S    1    1.000000
   1.30290000E+01    6.16462000E-01 
S    1    1.000000
   1.82773000E+00    2.21006000E-01 
SP   3    1.000000
   2.09642000E+01    1.14660000E-01   4.02487000E-02 
   4.80331000E+00    9.19999000E-01   2.37594000E-01 
   1.45933000E+00   -3.03068000E-03   8.15854000E-01 
SP   1    1.000000
   4.83456000E-01    1.00000000E+00   1.00000000E+00 
SP   1    1.000000
   1.45585000E-01    1.00000000E+00   1.00000000E+00 
SP   1    1.000000
   4.38000000E-02    1.00000000E+00   1.00000000E+00 
SP   1    1.000000
   1.31927711E-02    1.00000000E+00   1.00000000E+00 
D    1    1.000000
   6.26000000E-01    1.00000000E+00 

2    0
S    3    1.000000
   3.38650000E+01    2.54938000E-02 
   5.09479000E+00    1.90373000E-01 
   1.15879000E+00    8.52161000E-01 
S    1    1.000000
   3.25840000E-01    1.00000000E+00 
S    1    1.000000
   1.02741000E-01    1.00000000E+00 
S    1    1.000000
   3.60000000E-02    1.00000000E+00 
P    1    1.000000
   7.50000000E-01    1.00000000E+00 

3    0
S    3    1.000000
   3.38650000E+01    2.54938000E-02 
   5.09479000E+00    1.90373000E-01 
   1.15879000E+00    8.52161000E-01 
S    1    1.000000
   3.25840000E-01    1.00000000E+00 
S    1    1.000000
   1.02741000E-01    1.00000000E+00 
S    1    1.000000
   3.60000000E-02    1.00000000E+00 
P    1    1.000000
   7.50000000E-01    1.00000000E+00 

4    0
S    3    1.000000
   3.38650000E+01    2.54938000E-02 
   5.09479000E+00    1.90373000E-01 
   1.15879000E+00    8.52161000E-01 
S    1    1.000000
   3.25840000E-01    1.00000000E+00 
S    1    1.000000
   1.02741000E-01    1.00000000E+00 
S    1    1.000000
   3.60000000E-02    1.00000000E+00 
P    1    1.000000
   7.50000000E-01    1.00000000E+00 

5    0
S    1    1.000000
   4.56324000E+03    1.96665000E-03 
S    1    1.000000
   6.82024000E+02    1.52306000E-02 
S    1    1.000000
   1.54973000E+02    7.61269000E-02 
S    1    1.000000
   4.44553000E+01    2.60801000E-01 
S    1    1.000000
   1.30290000E+01    6.16462000E-01 
S    1    1.000000
   1.82773000E+00    2.21006000E-01 
SP   3    1.000000
   2.09642000E+01    1.14660000E-01   4.02487000E-02 
   4.80331000E+00    9.19999000E-01   2.37594000E-01 
   1.45933000E+00   -3.03068000E-03   8.15854000E-01 
SP   1    1.000000
   4.83456000E-01    1.00000000E+00   1.00000000E+00 
SP   1    1.000000
   1.45585000E-01    1.00000000E+00   1.00000000E+00 
SP   1    1.000000
   4.38000000E-02    1.00000000E+00   1.00000000E+00 
SP   1    1.000000
   1.31927711E-02    1.00000000E+00   1.00000000E+00 
D    1    1.000000
   6.26000000E-01    1.00000000E+00 

6    0
S    1    1.000000
   8.58850000E+03    1.89515000E-03 
S    1    1.000000
   1.29723000E+03    1.43859000E-02 
S    1    1.000000
   2.99296000E+02    7.07320000E-02 
S    1    1.000000
   8.73771000E+01    2.40001000E-01 
S    1    1.000000
   2.56789000E+01    5.94797000E-01 
S    1    1.000000
   3.74004000E+00    2.80802000E-01 
SP   3    1.000000
   4.21175000E+01    1.13889000E-01   3.65114000E-02 
   9.62837000E+00    9.20811000E-01   2.37153000E-01 
   2.85332000E+00   -3.27447000E-03   8.19702000E-01 
SP   1    1.000000
   9.05661000E-01    1.00000000E+00   1.00000000E+00 
SP   1    1.000000
   2.55611000E-01    1.00000000E+00   1.00000000E+00 
SP   1    1.000000
   8.45000000E-02    1.00000000E+00   1.00000000E+00 
SP   1    1.000000
   2.54518072E-02    1.00000000E+00   1.00000000E+00 
D    1    1.000000
   1.29200000E+00    1.00000000E+00 

7    0
S    1    1.000000
   4.56324000E+03    1.96665000E-03 
S    1    1.000000
   6.82024000E+02    1.52306000E-02 
S    1    1.000000
   1.54973000E+02    7.61269000E-02 
S    1    1.000000
   4.44553000E+01    2.60801000E-01 
S    1    1.000000
   1.30290000E+01    6.16462000E-01 
S    1    1.000000
   1.82773000E+00    2.21006000E-01 
SP   3    1.000000
   2.09642000E+01    1.14660000E-01   4.02487000E-02 
   4.80331000E+00    9.19999000E-01   2.37594000E-01 
   1.45933000E+00   -3.03068000E-03   8.15854000E-01 
SP   1    1.000000
   4.83456000E-01    1.00000000E+00   1.00000000E+00 
SP   1    1.000000
   1.45585000E-01    1.00000000E+00   1.00000000E+00 
SP   1    1.000000
   4.38000000E-02    1.00000000E+00   1.00000000E+00 
SP   1    1.000000
   1.31927711E-02    1.00000000E+00   1.00000000E+00 
D    1    1.000000
   6.26000000E-01    1.00000000E+00 

8    0
S    1    1.000000
   8.58850000E+03    1.89515000E-03 
S    1    1.000000
   1.29723000E+03    1.43859000E-02 
S    1    1.000000
   2.99296000E+02    7.07320000E-02 
S    1    1.000000
   8.73771000E+01    2.40001000E-01 
S    1    1.000000
   2.56789000E+01    5.94797000E-01 
S    1    1.000000
   3.74004000E+00    2.80802000E-01 
SP   3    1.000000
   4.21175000E+01    1.13889000E-01   3.65114000E-02 
   9.62837000E+00    9.20811000E-01   2.37153000E-01 
   2.85332000E+00   -3.27447000E-03   8.19702000E-01 
SP   1    1.000000
   9.05661000E-01    1.00000000E+00   1.00000000E+00 
SP   1    1.000000
   2.55611000E-01    1.00000000E+00   1.00000000E+00 
SP   1    1.000000
   8.45000000E-02    1.00000000E+00   1.00000000E+00 
SP   1    1.000000
   2.54518072E-02    1.00000000E+00   1.00000000E+00 
D    1    1.000000
   1.29200000E+00    1.00000000E+00 

9    0
S    1    1.000000
   6.29348000E+03    1.96979000E-03 
S    1    1.000000
   9.49044000E+02    1.49613000E-02 
S    1    1.000000
   2.18776000E+02    7.35006000E-02 
S    1    1.000000
   6.36916000E+01    2.48937000E-01 
S    1    1.000000
   1.88282000E+01    6.02460000E-01 
S    1    1.000000
   2.72023000E+00    2.56202000E-01 
SP   3    1.000000
   3.06331000E+01    1.11906000E-01   3.83119000E-02 
   7.02614000E+00    9.21666000E-01   2.37403000E-01 
   2.11205000E+00   -2.56919000E-03   8.17592000E-01 
SP   1    1.000000
   6.84009000E-01    1.00000000E+00   1.00000000E+00 
SP   1    1.000000
   2.00878000E-01    1.00000000E+00   1.00000000E+00 
SP   1    1.000000
   6.39000000E-02    1.00000000E+00   1.00000000E+00 
SP   1    1.000000
   1.92469880E-02    1.00000000E+00   1.00000000E+00 
D    1    1.000000
   9.13000000E-01    1.00000000E+00 

10    0
S    1    1.000000
   6.29348000E+03    1.96979000E-03 
S    1    1.000000
   9.49044000E+02    1.49613000E-02 
S    1    1.000000
   2.18776000E+02    7.35006000E-02 
S    1    1.000000
   6.36916000E+01    2.48937000E-01 
S    1    1.000000
   1.88282000E+01    6.02460000E-01 
S    1    1.000000
   2.72023000E+00    2.56202000E-01 
SP   3    1.000000
   3.06331000E+01    1.11906000E-01   3.83119000E-02 
   7.02614000E+00    9.21666000E-01   2.37403000E-01 
   2.11205000E+00   -2.56919000E-03   8.17592000E-01 
SP   1    1.000000
   6.84009000E-01    1.00000000E+00   1.00000000E+00 
SP   1    1.000000
   2.00878000E-01    1.00000000E+00   1.00000000E+00 
SP   1    1.000000
   6.39000000E-02    1.00000000E+00   1.00000000E+00 
SP   1    1.000000
   1.92469880E-02    1.00000000E+00   1.00000000E+00 
D    1    1.000000
   9.13000000E-01    1.00000000E+00 

11    0
S    1    1.000000
   4.56324000E+03    1.96665000E-03 
S    1    1.000000
   6.82024000E+02    1.52306000E-02 
S    1    1.000000
   1.54973000E+02    7.61269000E-02 
S    1    1.000000
   4.44553000E+01    2.60801000E-01 
S    1    1.000000
   1.30290000E+01    6.16462000E-01 
S    1    1.000000
   1.82773000E+00    2.21006000E-01 
SP   3    1.000000
   2.09642000E+01    1.14660000E-01   4.02487000E-02 
   4.80331000E+00    9.19999000E-01   2.37594000E-01 
   1.45933000E+00   -3.03068000E-03   8.15854000E-01 
SP   1    1.000000
   4.83456000E-01    1.00000000E+00   1.00000000E+00 
SP   1    1.000000
   1.45585000E-01    1.00000000E+00   1.00000000E+00 
SP   1    1.000000
   4.38000000E-02    1.00000000E+00   1.00000000E+00 
SP   1    1.000000
   1.31927711E-02    1.00000000E+00   1.00000000E+00 
D    1    1.000000
   6.26000000E-01    1.00000000E+00 

12    0
S    3    1.000000
   3.38650000E+01    2.54938000E-02 
   5.09479000E+00    1.90373000E-01 
   1.15879000E+00    8.52161000E-01 
S    1    1.000000
   3.25840000E-01    1.00000000E+00 
S    1    1.000000
   1.02741000E-01    1.00000000E+00 
S    1    1.000000
   3.60000000E-02    1.00000000E+00 
P    1    1.000000
   7.50000000E-01    1.00000000E+00 

[MO]
Sym=X
Ene=0.020154
Spin=Alpha
Occup=1
1    -1.71780703e-09
2    5.00973126e-08
3    -5.90593853e-08
4    1.6684547e-06
5    6.6525451e-06
6    -3.33238433e-06
7    -1.62092497e-06
8    6.18009746e-07
9    -7.76225555e-16
10    -1.9448946e-05
11    1.66765453e-05
12    -5.42682329e-06
13    -2.53439889e-15
14    0.000149507959
15    2.65963218e-05
16    0.000148499617
17    6.00249508e-16
18    0.00288082792
19    -5.59802747e-06
20    0.00121475619
21    -4.83816874e-14
22    0.000314928009
23    0.000236434716
24    -0.000201682639
25    -9.3105037e-15
26    7.60956249e-06
27    1.04506668e-16
28    -2.71580501e-06
29    4.3730739e-16
30    4.78377072e-06
31    -6.87859538e-06
32    1.15061109e-05
33    2.50954064e-05
34    -9.54050917e-05
35    -3.36447704e-06
36    8.1557147e-06
37    -1.05961722e-15
38    -1.26370373e-06
39    1.96002344e-05
40    0.000111684746
41    0.000764785935
42    1.12464289e-06
43    3.57600002e-06
44    -2.58287749e-16
45    -5.55249422e-06
46    -9.54599259e-07
47    9.75647265e-05
48    -0.000125591412
49    -8.55189457e-06
50    -4.54315806e-07
51    3.14309341e-16
52    8.93215922e-09
53    1.29003816e-07
54    2.76486006e-07
55    3.22627613e-06
56    7.12113812e-06
57    0.000120336454
58    1.44578294e-05
59    3.51002369e-05
60    -2.16321082e-05
61    -2.46160061e-15
62    -0.000446171994
63    0.000453436914
64    -0.000272766264
65    9.87751943e-16
66    0.000890631274
67    -0.000469271209
68    0.000285832385
69    -6.32463558e-15
70    0.00214906612
71    -0.00270437408
72    0.00173891358
73    -4.94826631e-14
74    -0.00139338476
75    -0.000107657942
76    -0.000232064019
77    -5.72140057e-15
78    0.000243926923
79    6.14442073e-16
80    8.00365941e-05
81    1.09910234e-15
82    -0.000127608797
83    -0.00104384945
84    -0.00794069127
85    -0.0389355533
86    -0.13250963
87    -0.327964775
88    -0.155520534
89    -0.471287982
90    -0.00159310042
91    0.000975079152
92    -9.90815997e-16
93    -0.0049392756
94    0.000742636768
95    -0.000452855337
96    -7.10353386e-16
97    0.000586089696
98    -0.000409140571
99    0.000250303503
100    -5.11158366e-15
101    -0.00323883762
102    -0.000235870119
103    0.000142262734
104    5.64879555e-15
105    -0.00755056316
106    -0.00139652358
107    0.000692622485
108    -4.63343232e-15
109    -8.60934563e-05
110    7.73357555e-16
111    7.52544146e-05
112    -1.85328099e-16
113    4.74858951e-05
114    8.08487197e-10
115    -1.95640907e-09
116    5.04561424e-08
117    -6.53852818e-08
118    1.66824911e-06
119    6.46303878e-06
120    -3.31912987e-06
121    -2.0307951e-06
122    -5.48346527e-07
123    1.89036169e-15
124    -1.64919501e-05
125    1.1280715e-05
126    -2.60913131e-06
127    -1.00769866e-15
128    -6.09118128e-05
129    -0.000236952379
130    -0.000157515446
131    9.57193829e-15
132    0.00186121413
133    -0.00111897225
134    -0.00039914645
135    -6.86246465e-14
136    0.000408281378
137    -0.000173815178
138    0.000252856121
139    -4.4965853e-14
140    -3.8365399e-06
141    9.11674183e-16
142    5.15555733e-07
143    1.14127268e-15
144    -5.56737826e-06
145    -1.19012188e-07
146    -9.09689131e-07
147    -4.42921798e-06
148    -1.51932695e-05
149    -3.65412606e-05
150    -1.40794641e-05
151    -5.61368728e-05
152    -1.49309315e-06
153    2.98924532e-07
154    7.1881051e-16
155    -1.20649779e-05
156    5.46569836e-06
157    2.30949381e-07
158    2.90608053e-15
159    9.27158971e-05
160    -5.60117463e-05
161    -2.40953625e-05
162    -1.1072154e-15
163    0.00045518221
164    -4.22654644e-05
165    -7.21558411e-05
166    9.35939836e-15
167    0.00238262677
168    -0.000383045254
169    -7.93493044e-05
170    1.52368897e-14
171    1.62185711e-06
172    1.66481074e-16
173    -1.25541326e-06
174    5.2182129e-17
175    4.4980961e-07
176    1.31357413e-09
177    -2.50789214e-08
178    1.26566738e-07
179    -5.51706426e-07
180    6.80663753e-06
181    2.76223519e-05
182    -1.88731743e-05
183    -1.67341529e-05
184    1.49270698e-06
185    -1.76907256e-15
186    -3.91977221e-05
187    5.50456285e-05
188    5.57424898e-07
189    5.76618552e-15
190    -2.09520326e-05
191    -1.33637804e-05
192    1.89911803e-05
193    -1.4073555e-14
194    -0.000191309953
195    3.86757959e-05
196    -0.000213142369
197    4.14564696e-14
198    0.00142424207
199    -0.00233502948
200    7.26569327e-05
201    4.41634832e-14
202    -3.89945097e-06
203    3.69692608e-16
204    4.50415615e-06
205    1.22059049e-15
206    -3.1531232e-05
207    1.31339987e-09
208    -2.76146661e-08
209    1.32267239e-07
210    -6.03499823e-07
211    7.26521208e-06
212    2.95959941e-05
213    -2.02197534e-05
214    -8.70013085e-06
215    1.47643894e-05
216    -3.01562812e-15
217    -4.43343577e-05
218    2.37689251e-05
219    -5.12885563e-05
220    1.79745565e-15
221    8.00315044e-06
222    -7.66820552e-06
223    1.93232914e-05
224    -1.58940022e-14
225    -0.00019387821
226    5.90731887e-05
227    1.38441996e-05
228    3.69146652e-14
229    0.00192128571
230    -0.0003794899
231    0.00077058407
232    1.41733388e-14
233    2.04197715e-05
234    -2.09238154e-16
235    4.10648909e-06
236    -2.54592645e-17
237    2.38391952e-05
238    -3.54125637e-11
239    -2.79804277e-10
240    -1.40923299e-09
241    -1.79016923e-09
242    6.66658735e-08
243    1.08205903e-06
244    -2.92226776e-07
245    -1.28533139e-06
246    5.22651307e-08
247    -4.49465305e-16
248    6.14603709e-08
249    1.35046488e-05
250    -1.06210959e-06
251    -5.42292326e-16
252    -0.000236727543
253    0.000144750705
254    -7.93319247e-05
255    -5.27625572e-15
256    -0.00307426293
257    0.000723298429
258    -0.000413173311
259    5.2855223e-14
260    0.000115198913
261    0.000110645325
262    0.000282315648
263    2.88407212e-14
264    -5.78243399e-06
265    3.09075597e-16
266    -1.28830943e-06
267    6.45512112e-16
268    -3.01002336e-07
269    -5.94683462e-07
270    -2.44199644e-05
271    -5.5327702e-05
272    -6.97387813e-05
273    3.628026e-06
274    -2.51723544e-06
275    1.18843312e-16
[5D]