[Molden Format]
[Atoms] (Angs)
  C      1    6     -0.00714236     -1.70213747     -0.00000000
  H      2    1     -2.06882847     -1.44022412      0.00000000
  H      3    1     -0.12337987     -2.77567521      0.00000000
  H      4    1      0.04651892      1.98813947     -0.00000000
  C      5    6     -1.21953563      0.40211669      0.00000000
  O      6    8     -2.25921553      1.03043814      0.00000000
  C      7    6      1.28797806      0.34644937     -0.00000000
  O      8    8      2.31273661      1.00537216     -0.00000000
  N      9    7      0.03446295      0.97739857     -0.00000000
  N     10    7     -1.17287765     -0.98229824      0.00000000
  C     11    6      1.20107039     -1.10433419     -0.00000000
  H     12    1      2.11220096     -1.67699125     -0.00000000
[GTO]
1    0
S    1    1.000000
   4.56324000E+03    1.96665000E-03 
S    1    1.000000
   6.82024000E+02    1.52306000E-02 
S    1    1.000000
   1.54973000E+02    7.61269000E-02 
S    1    1.000000
   4.44553000E+01    2.60801000E-01 
S    1    1.000000
   1.30290000E+01    6.16462000E-01 
S    1    1.000000
   1.82773000E+00    2.21006000E-01 
SP   3    1.000000
   2.09642000E+01    1.14660000E-01   4.02487000E-02 
   4.80331000E+00    9.19999000E-01   2.37594000E-01 
   1.45933000E+00   -3.03068000E-03   8.15854000E-01 
SP   1    1.000000
   4.83456000E-01    1.00000000E+00   1.00000000E+00 
SP   1    1.000000
   1.45585000E-01    1.00000000E+00   1.00000000E+00 
SP   1    1.000000
   4.38000000E-02    1.00000000E+00   1.00000000E+00 
SP   1    1.000000
   1.31927711E-02    1.00000000E+00   1.00000000E+00 
D    1    1.000000
   6.26000000E-01    1.00000000E+00 

2    0
S    3    1.000000
   3.38650000E+01    2.54938000E-02 
   5.09479000E+00    1.90373000E-01 
   1.15879000E+00    8.52161000E-01 
S    1    1.000000
   3.25840000E-01    1.00000000E+00 
S    1    1.000000
   1.02741000E-01    1.00000000E+00 
S    1    1.000000
   3.60000000E-02    1.00000000E+00 
P    1    1.000000
   7.50000000E-01    1.00000000E+00 

3    0
S    3    1.000000
   3.38650000E+01    2.54938000E-02 
   5.09479000E+00    1.90373000E-01 
   1.15879000E+00    8.52161000E-01 
S    1    1.000000
   3.25840000E-01    1.00000000E+00 
S    1    1.000000
   1.02741000E-01    1.00000000E+00 
S    1    1.000000
   3.60000000E-02    1.00000000E+00 
P    1    1.000000
   7.50000000E-01    1.00000000E+00 

4    0
S    3    1.000000
   3.38650000E+01    2.54938000E-02 
   5.09479000E+00    1.90373000E-01 
   1.15879000E+00    8.52161000E-01 
S    1    1.000000
   3.25840000E-01    1.00000000E+00 
S    1    1.000000
   1.02741000E-01    1.00000000E+00 
S    1    1.000000
   3.60000000E-02    1.00000000E+00 
P    1    1.000000
   7.50000000E-01    1.00000000E+00 

5    0
S    1    1.000000
   4.56324000E+03    1.96665000E-03 
S    1    1.000000
   6.82024000E+02    1.52306000E-02 
S    1    1.000000
   1.54973000E+02    7.61269000E-02 
S    1    1.000000
   4.44553000E+01    2.60801000E-01 
S    1    1.000000
   1.30290000E+01    6.16462000E-01 
S    1    1.000000
   1.82773000E+00    2.21006000E-01 
SP   3    1.000000
   2.09642000E+01    1.14660000E-01   4.02487000E-02 
   4.80331000E+00    9.19999000E-01   2.37594000E-01 
   1.45933000E+00   -3.03068000E-03   8.15854000E-01 
SP   1    1.000000
   4.83456000E-01    1.00000000E+00   1.00000000E+00 
SP   1    1.000000
   1.45585000E-01    1.00000000E+00   1.00000000E+00 
SP   1    1.000000
   4.38000000E-02    1.00000000E+00   1.00000000E+00 
SP   1    1.000000
   1.31927711E-02    1.00000000E+00   1.00000000E+00 
D    1    1.000000
   6.26000000E-01    1.00000000E+00 

6    0
S    1    1.000000
   8.58850000E+03    1.89515000E-03 
S    1    1.000000
   1.29723000E+03    1.43859000E-02 
S    1    1.000000
   2.99296000E+02    7.07320000E-02 
S    1    1.000000
   8.73771000E+01    2.40001000E-01 
S    1    1.000000
   2.56789000E+01    5.94797000E-01 
S    1    1.000000
   3.74004000E+00    2.80802000E-01 
SP   3    1.000000
   4.21175000E+01    1.13889000E-01   3.65114000E-02 
   9.62837000E+00    9.20811000E-01   2.37153000E-01 
   2.85332000E+00   -3.27447000E-03   8.19702000E-01 
SP   1    1.000000
   9.05661000E-01    1.00000000E+00   1.00000000E+00 
SP   1    1.000000
   2.55611000E-01    1.00000000E+00   1.00000000E+00 
SP   1    1.000000
   8.45000000E-02    1.00000000E+00   1.00000000E+00 
SP   1    1.000000
   2.54518072E-02    1.00000000E+00   1.00000000E+00 
D    1    1.000000
   1.29200000E+00    1.00000000E+00 

7    0
S    1    1.000000
   4.56324000E+03    1.96665000E-03 
S    1    1.000000
   6.82024000E+02    1.52306000E-02 
S    1    1.000000
   1.54973000E+02    7.61269000E-02 
S    1    1.000000
   4.44553000E+01    2.60801000E-01 
S    1    1.000000
   1.30290000E+01    6.16462000E-01 
S    1    1.000000
   1.82773000E+00    2.21006000E-01 
SP   3    1.000000
   2.09642000E+01    1.14660000E-01   4.02487000E-02 
   4.80331000E+00    9.19999000E-01   2.37594000E-01 
   1.45933000E+00   -3.03068000E-03   8.15854000E-01 
SP   1    1.000000
   4.83456000E-01    1.00000000E+00   1.00000000E+00 
SP   1    1.000000
   1.45585000E-01    1.00000000E+00   1.00000000E+00 
SP   1    1.000000
   4.38000000E-02    1.00000000E+00   1.00000000E+00 
SP   1    1.000000
   1.31927711E-02    1.00000000E+00   1.00000000E+00 
D    1    1.000000
   6.26000000E-01    1.00000000E+00 

8    0
S    1    1.000000
   8.58850000E+03    1.89515000E-03 
S    1    1.000000
   1.29723000E+03    1.43859000E-02 
S    1    1.000000
   2.99296000E+02    7.07320000E-02 
S    1    1.000000
   8.73771000E+01    2.40001000E-01 
S    1    1.000000
   2.56789000E+01    5.94797000E-01 
S    1    1.000000
   3.74004000E+00    2.80802000E-01 
SP   3    1.000000
   4.21175000E+01    1.13889000E-01   3.65114000E-02 
   9.62837000E+00    9.20811000E-01   2.37153000E-01 
   2.85332000E+00   -3.27447000E-03   8.19702000E-01 
SP   1    1.000000
   9.05661000E-01    1.00000000E+00   1.00000000E+00 
SP   1    1.000000
   2.55611000E-01    1.00000000E+00   1.00000000E+00 
SP   1    1.000000
   8.45000000E-02    1.00000000E+00   1.00000000E+00 
SP   1    1.000000
   2.54518072E-02    1.00000000E+00   1.00000000E+00 
D    1    1.000000
   1.29200000E+00    1.00000000E+00 

9    0
S    1    1.000000
   6.29348000E+03    1.96979000E-03 
S    1    1.000000
   9.49044000E+02    1.49613000E-02 
S    1    1.000000
   2.18776000E+02    7.35006000E-02 
S    1    1.000000
   6.36916000E+01    2.48937000E-01 
S    1    1.000000
   1.88282000E+01    6.02460000E-01 
S    1    1.000000
   2.72023000E+00    2.56202000E-01 
SP   3    1.000000
   3.06331000E+01    1.11906000E-01   3.83119000E-02 
   7.02614000E+00    9.21666000E-01   2.37403000E-01 
   2.11205000E+00   -2.56919000E-03   8.17592000E-01 
SP   1    1.000000
   6.84009000E-01    1.00000000E+00   1.00000000E+00 
SP   1    1.000000
   2.00878000E-01    1.00000000E+00   1.00000000E+00 
SP   1    1.000000
   6.39000000E-02    1.00000000E+00   1.00000000E+00 
SP   1    1.000000
   1.92469880E-02    1.00000000E+00   1.00000000E+00 
D    1    1.000000
   9.13000000E-01    1.00000000E+00 

10    0
S    1    1.000000
   6.29348000E+03    1.96979000E-03 
S    1    1.000000
   9.49044000E+02    1.49613000E-02 
S    1    1.000000
   2.18776000E+02    7.35006000E-02 
S    1    1.000000
   6.36916000E+01    2.48937000E-01 
S    1    1.000000
   1.88282000E+01    6.02460000E-01 
S    1    1.000000
   2.72023000E+00    2.56202000E-01 
SP   3    1.000000
   3.06331000E+01    1.11906000E-01   3.83119000E-02 
   7.02614000E+00    9.21666000E-01   2.37403000E-01 
   2.11205000E+00   -2.56919000E-03   8.17592000E-01 
SP   1    1.000000
   6.84009000E-01    1.00000000E+00   1.00000000E+00 
SP   1    1.000000
   2.00878000E-01    1.00000000E+00   1.00000000E+00 
SP   1    1.000000
   6.39000000E-02    1.00000000E+00   1.00000000E+00 
SP   1    1.000000
   1.92469880E-02    1.00000000E+00   1.00000000E+00 
D    1    1.000000
   9.13000000E-01    1.00000000E+00 

11    0
S    1    1.000000
   4.56324000E+03    1.96665000E-03 
S    1    1.000000
   6.82024000E+02    1.52306000E-02 
S    1    1.000000
   1.54973000E+02    7.61269000E-02 
S    1    1.000000
   4.44553000E+01    2.60801000E-01 
S    1    1.000000
   1.30290000E+01    6.16462000E-01 
S    1    1.000000
   1.82773000E+00    2.21006000E-01 
SP   3    1.000000
   2.09642000E+01    1.14660000E-01   4.02487000E-02 
   4.80331000E+00    9.19999000E-01   2.37594000E-01 
   1.45933000E+00   -3.03068000E-03   8.15854000E-01 
SP   1    1.000000
   4.83456000E-01    1.00000000E+00   1.00000000E+00 
SP   1    1.000000
   1.45585000E-01    1.00000000E+00   1.00000000E+00 
SP   1    1.000000
   4.38000000E-02    1.00000000E+00   1.00000000E+00 
SP   1    1.000000
   1.31927711E-02    1.00000000E+00   1.00000000E+00 
D    1    1.000000
   6.26000000E-01    1.00000000E+00 

12    0
S    3    1.000000
   3.38650000E+01    2.54938000E-02 
   5.09479000E+00    1.90373000E-01 
   1.15879000E+00    8.52161000E-01 
S    1    1.000000
   3.25840000E-01    1.00000000E+00 
S    1    1.000000
   1.02741000E-01    1.00000000E+00 
S    1    1.000000
   3.60000000E-02    1.00000000E+00 
P    1    1.000000
   7.50000000E-01    1.00000000E+00 

[MO]
Sym=X
Ene=0.019302
Spin=Alpha
Occup=1
1    -1.71411089e-09
2    5.0058373e-08
3    -5.8964215e-08
4    1.66693599e-06
5    6.64661212e-06
6    -3.32897353e-06
7    -1.62123725e-06
8    6.17228249e-07
9    -7.76247591e-16
10    -1.94330913e-05
11    1.66809272e-05
12    -5.42192832e-06
13    -2.53466641e-15
14    0.000149401251
15    2.65868001e-05
16    0.00014843574
17    5.98629105e-16
18    0.00288148721
19    -5.45745935e-06
20    0.00121468238
21    -4.83659045e-14
22    0.000315140483
23    0.000236522908
24    -0.000201667301
25    -9.34473851e-15
26    7.61407444e-06
27    1.04502412e-16
28    -2.71466596e-06
29    4.37259292e-16
30    4.78124779e-06
31    -6.87848208e-06
32    1.15141087e-05
33    2.50930363e-05
34    -9.53660504e-05
35    -3.36422499e-06
36    8.15632177e-06
37    -1.05969157e-15
38    -1.26418064e-06
39    1.95978693e-05
40    0.00011163302
41    0.000764690309
42    1.12561593e-06
43    3.57499941e-06
44    -2.58237553e-16
45    -5.55021104e-06
46    -9.54610259e-07
47    9.7567119e-05
48    -0.000125553568
49    -8.55353209e-06
50    -4.54648596e-07
51    3.1429238e-16
52    8.93186698e-09
53    1.29004453e-07
54    2.76467931e-07
55    3.22629805e-06
56    7.12053972e-06
57    0.000120334105
58    1.4459022e-05
59    3.51000444e-05
60    -2.16319176e-05
61    -2.46134201e-15
62    -0.000446165261
63    0.000453438542
64    -0.000272765472
65    9.86845413e-16
66    0.000890616689
67    -0.000469356152
68    0.000285867797
69    -6.32351415e-15
70    0.00214875208
71    -0.00270474138
72    0.00173895355
73    -4.94768476e-14
74    -0.00139372635
75    -0.000107736129
76    -0.000232203413
77    -5.70462439e-15
78    0.000243925925
79    6.14600087e-16
80    8.00370699e-05
81    1.09921123e-15
82    -0.000127607199
83    -0.00104384943
84    -0.00794069115
85    -0.0389355527
86    -0.132509628
87    -0.32796477
88    -0.155520532
89    -0.471287974
90    -0.00159310097
91    0.00097507895
92    -9.9101557e-16
93    -0.00493927279
94    0.000742638625
95    -0.000452854939
96    -7.09890637e-16
97    0.000586064963
98    -0.000409156402
99    0.000250309675
100    -5.11314239e-15
101    -0.00323898187
102    -0.000235878296
103    0.000142289864
104    5.65078504e-15
105    -0.00755135693
106    -0.00139664768
107    0.000692649876
108    -4.64003263e-15
109    -8.60929132e-05
110    7.73375887e-16
111    7.52547714e-05
112    -1.85221715e-16
113    4.74858737e-05
114    8.05976728e-10
115    -1.99483127e-09
116    5.03813749e-08
117    -6.6358224e-08
118    1.66622692e-06
119    6.42704063e-06
120    -3.32381821e-06
121    -2.02051937e-06
122    -5.40397886e-07
123    1.8902193e-15
124    -1.63592604e-05
125    1.14189602e-05
126    -2.51755364e-06
127    -1.0066926e-15
128    -6.11681545e-05
129    -0.000237056667
130    -0.000157583116
131    9.57066479e-15
132    0.00186108767
133    -0.00111998535
134    -0.000399676145
135    -6.86013676e-14
136    0.000408341952
137    -0.000173955456
138    0.000253093577
139    -4.4986297e-14
140    -3.75717952e-06
141    9.11857262e-16
142    4.9206455e-07
143    1.1413996e-15
144    -5.53149108e-06
145    2.13887151e-07
146    1.62271744e-06
147    7.98791693e-06
148    2.70659563e-05
149    6.80509189e-05
150    3.55114304e-05
151    9.41687147e-05
152    -1.98986224e-06
153    -8.35234208e-11
154    7.19157201e-16
155    -1.0490174e-05
156    5.69651879e-06
157    3.6944056e-07
158    2.90590007e-15
159    9.25120826e-05
160    -5.61357704e-05
161    -2.41666681e-05
162    -1.10511903e-15
163    0.000456145374
164    -4.23136205e-05
165    -7.2202795e-05
166    9.35508354e-15
167    0.0023846772
168    -0.000383426497
169    -7.94691498e-05
170    1.52355533e-14
171    1.59259993e-06
172    1.66500355e-16
173    -1.2896341e-06
174    5.21247656e-17
175    4.35294028e-07
176    1.31332468e-09
177    -2.50711529e-08
178    1.26536312e-07
179    -5.51540047e-07
180    6.80478244e-06
181    2.76146939e-05
182    -1.88677679e-05
183    -1.67396942e-05
184    1.49312389e-06
185    -1.76882889e-15
186    -3.91900421e-05
187    5.50638213e-05
188    5.54660973e-07
189    5.76604411e-15
190    -2.09127745e-05
191    -1.33792006e-05
192    1.89729022e-05
193    -1.40714018e-14
194    -0.000191356074
195    3.864442e-05
196    -0.000213111338
197    4.14468371e-14
198    0.00142354828
199    -0.00233593249
200    7.26747548e-05
201    4.41546447e-14
202    -3.90339939e-06
203    3.69893625e-16
204    4.50215288e-06
205    1.2206724e-15
206    -3.15221664e-05
207    1.31334585e-09
208    -2.761348e-08
209    1.32261518e-07
210    -6.03474009e-07
211    7.26491387e-06
212    2.95948189e-05
213    -2.0219e-05
214    -8.70029461e-06
215    1.47645734e-05
216    -3.01551851e-15
217    -4.43335205e-05
218    2.37702273e-05
219    -5.128939e-05
220    1.79634669e-15
221    8.04074406e-06
222    -7.63726325e-06
223    1.93337224e-05
224    -1.5892229e-14
225    -0.000193665179
226    5.9152971e-05
227    1.38546427e-05
228    3.69046261e-14
229    0.00192129365
230    -0.000379408174
231    0.000770545155
232    1.41764521e-14
233    2.04184901e-05
234    -2.09212138e-16
235    4.10664259e-06
236    -2.53826654e-17
237    2.38387426e-05
238    -3.49678854e-11
239    -2.73869582e-10
240    -1.39666477e-09
241    -1.68081059e-09
242    6.62375912e-08
243    1.07876277e-06
244    -2.89940298e-07
245    -1.28785341e-06
246    4.78361185e-08
247    -4.49159334e-16
248    6.39117675e-08
249    1.35114318e-05
250    -1.03958484e-06
251    -5.43556896e-16
252    -0.000236670591
253    0.000144708912
254    -7.9338806e-05
255    -5.27277986e-15
256    -0.00307537404
257    0.000723841701
258    -0.000413196783
259    5.28310633e-14
260    0.000115357499
261    0.000110744061
262    0.000282371342
263    2.88796347e-14
264    -5.76976599e-06
265    3.09140593e-16
266    -1.28830257e-06
267    6.45449194e-16
268    -3.13652969e-07
269    -5.92868097e-07
270    -2.44028883e-05
271    -5.53497315e-05
272    -7.00450974e-05
273    3.62333189e-06
274    -2.51530897e-06
275    1.18799365e-16
[5D]