[Molden Format]
[Atoms] (Angs)
  C      1    6     -0.00714236     -1.70213747     -0.00000000
  H      2    1     -2.06882847     -1.44022412      0.00000000
  H      3    1     -0.12337987     -2.77567521      0.00000000
  H      4    1      0.04651892      1.98813947     -0.00000000
  C      5    6     -1.21953563      0.40211669      0.00000000
  O      6    8     -2.25921553      1.03043814      0.00000000
  C      7    6      1.28797806      0.34644937     -0.00000000
  O      8    8      2.31273661      1.00537216     -0.00000000
  N      9    7      0.03446295      0.97739857     -0.00000000
  N     10    7     -1.17287765     -0.98229824      0.00000000
  C     11    6      1.20107039     -1.10433419     -0.00000000
  H     12    1      2.11220096     -1.67699125     -0.00000000
[GTO]
1    0
S    1    1.000000
   4.56324000E+03    1.96665000E-03 
S    1    1.000000
   6.82024000E+02    1.52306000E-02 
S    1    1.000000
   1.54973000E+02    7.61269000E-02 
S    1    1.000000
   4.44553000E+01    2.60801000E-01 
S    1    1.000000
   1.30290000E+01    6.16462000E-01 
S    1    1.000000
   1.82773000E+00    2.21006000E-01 
SP   3    1.000000
   2.09642000E+01    1.14660000E-01   4.02487000E-02 
   4.80331000E+00    9.19999000E-01   2.37594000E-01 
   1.45933000E+00   -3.03068000E-03   8.15854000E-01 
SP   1    1.000000
   4.83456000E-01    1.00000000E+00   1.00000000E+00 
SP   1    1.000000
   1.45585000E-01    1.00000000E+00   1.00000000E+00 
SP   1    1.000000
   4.38000000E-02    1.00000000E+00   1.00000000E+00 
SP   1    1.000000
   1.31927711E-02    1.00000000E+00   1.00000000E+00 
D    1    1.000000
   6.26000000E-01    1.00000000E+00 

2    0
S    3    1.000000
   3.38650000E+01    2.54938000E-02 
   5.09479000E+00    1.90373000E-01 
   1.15879000E+00    8.52161000E-01 
S    1    1.000000
   3.25840000E-01    1.00000000E+00 
S    1    1.000000
   1.02741000E-01    1.00000000E+00 
S    1    1.000000
   3.60000000E-02    1.00000000E+00 
P    1    1.000000
   7.50000000E-01    1.00000000E+00 

3    0
S    3    1.000000
   3.38650000E+01    2.54938000E-02 
   5.09479000E+00    1.90373000E-01 
   1.15879000E+00    8.52161000E-01 
S    1    1.000000
   3.25840000E-01    1.00000000E+00 
S    1    1.000000
   1.02741000E-01    1.00000000E+00 
S    1    1.000000
   3.60000000E-02    1.00000000E+00 
P    1    1.000000
   7.50000000E-01    1.00000000E+00 

4    0
S    3    1.000000
   3.38650000E+01    2.54938000E-02 
   5.09479000E+00    1.90373000E-01 
   1.15879000E+00    8.52161000E-01 
S    1    1.000000
   3.25840000E-01    1.00000000E+00 
S    1    1.000000
   1.02741000E-01    1.00000000E+00 
S    1    1.000000
   3.60000000E-02    1.00000000E+00 
P    1    1.000000
   7.50000000E-01    1.00000000E+00 

5    0
S    1    1.000000
   4.56324000E+03    1.96665000E-03 
S    1    1.000000
   6.82024000E+02    1.52306000E-02 
S    1    1.000000
   1.54973000E+02    7.61269000E-02 
S    1    1.000000
   4.44553000E+01    2.60801000E-01 
S    1    1.000000
   1.30290000E+01    6.16462000E-01 
S    1    1.000000
   1.82773000E+00    2.21006000E-01 
SP   3    1.000000
   2.09642000E+01    1.14660000E-01   4.02487000E-02 
   4.80331000E+00    9.19999000E-01   2.37594000E-01 
   1.45933000E+00   -3.03068000E-03   8.15854000E-01 
SP   1    1.000000
   4.83456000E-01    1.00000000E+00   1.00000000E+00 
SP   1    1.000000
   1.45585000E-01    1.00000000E+00   1.00000000E+00 
SP   1    1.000000
   4.38000000E-02    1.00000000E+00   1.00000000E+00 
SP   1    1.000000
   1.31927711E-02    1.00000000E+00   1.00000000E+00 
D    1    1.000000
   6.26000000E-01    1.00000000E+00 

6    0
S    1    1.000000
   8.58850000E+03    1.89515000E-03 
S    1    1.000000
   1.29723000E+03    1.43859000E-02 
S    1    1.000000
   2.99296000E+02    7.07320000E-02 
S    1    1.000000
   8.73771000E+01    2.40001000E-01 
S    1    1.000000
   2.56789000E+01    5.94797000E-01 
S    1    1.000000
   3.74004000E+00    2.80802000E-01 
SP   3    1.000000
   4.21175000E+01    1.13889000E-01   3.65114000E-02 
   9.62837000E+00    9.20811000E-01   2.37153000E-01 
   2.85332000E+00   -3.27447000E-03   8.19702000E-01 
SP   1    1.000000
   9.05661000E-01    1.00000000E+00   1.00000000E+00 
SP   1    1.000000
   2.55611000E-01    1.00000000E+00   1.00000000E+00 
SP   1    1.000000
   8.45000000E-02    1.00000000E+00   1.00000000E+00 
SP   1    1.000000
   2.54518072E-02    1.00000000E+00   1.00000000E+00 
D    1    1.000000
   1.29200000E+00    1.00000000E+00 

7    0
S    1    1.000000
   4.56324000E+03    1.96665000E-03 
S    1    1.000000
   6.82024000E+02    1.52306000E-02 
S    1    1.000000
   1.54973000E+02    7.61269000E-02 
S    1    1.000000
   4.44553000E+01    2.60801000E-01 
S    1    1.000000
   1.30290000E+01    6.16462000E-01 
S    1    1.000000
   1.82773000E+00    2.21006000E-01 
SP   3    1.000000
   2.09642000E+01    1.14660000E-01   4.02487000E-02 
   4.80331000E+00    9.19999000E-01   2.37594000E-01 
   1.45933000E+00   -3.03068000E-03   8.15854000E-01 
SP   1    1.000000
   4.83456000E-01    1.00000000E+00   1.00000000E+00 
SP   1    1.000000
   1.45585000E-01    1.00000000E+00   1.00000000E+00 
SP   1    1.000000
   4.38000000E-02    1.00000000E+00   1.00000000E+00 
SP   1    1.000000
   1.31927711E-02    1.00000000E+00   1.00000000E+00 
D    1    1.000000
   6.26000000E-01    1.00000000E+00 

8    0
S    1    1.000000
   8.58850000E+03    1.89515000E-03 
S    1    1.000000
   1.29723000E+03    1.43859000E-02 
S    1    1.000000
   2.99296000E+02    7.07320000E-02 
S    1    1.000000
   8.73771000E+01    2.40001000E-01 
S    1    1.000000
   2.56789000E+01    5.94797000E-01 
S    1    1.000000
   3.74004000E+00    2.80802000E-01 
SP   3    1.000000
   4.21175000E+01    1.13889000E-01   3.65114000E-02 
   9.62837000E+00    9.20811000E-01   2.37153000E-01 
   2.85332000E+00   -3.27447000E-03   8.19702000E-01 
SP   1    1.000000
   9.05661000E-01    1.00000000E+00   1.00000000E+00 
SP   1    1.000000
   2.55611000E-01    1.00000000E+00   1.00000000E+00 
SP   1    1.000000
   8.45000000E-02    1.00000000E+00   1.00000000E+00 
SP   1    1.000000
   2.54518072E-02    1.00000000E+00   1.00000000E+00 
D    1    1.000000
   1.29200000E+00    1.00000000E+00 

9    0
S    1    1.000000
   6.29348000E+03    1.96979000E-03 
S    1    1.000000
   9.49044000E+02    1.49613000E-02 
S    1    1.000000
   2.18776000E+02    7.35006000E-02 
S    1    1.000000
   6.36916000E+01    2.48937000E-01 
S    1    1.000000
   1.88282000E+01    6.02460000E-01 
S    1    1.000000
   2.72023000E+00    2.56202000E-01 
SP   3    1.000000
   3.06331000E+01    1.11906000E-01   3.83119000E-02 
   7.02614000E+00    9.21666000E-01   2.37403000E-01 
   2.11205000E+00   -2.56919000E-03   8.17592000E-01 
SP   1    1.000000
   6.84009000E-01    1.00000000E+00   1.00000000E+00 
SP   1    1.000000
   2.00878000E-01    1.00000000E+00   1.00000000E+00 
SP   1    1.000000
   6.39000000E-02    1.00000000E+00   1.00000000E+00 
SP   1    1.000000
   1.92469880E-02    1.00000000E+00   1.00000000E+00 
D    1    1.000000
   9.13000000E-01    1.00000000E+00 

10    0
S    1    1.000000
   6.29348000E+03    1.96979000E-03 
S    1    1.000000
   9.49044000E+02    1.49613000E-02 
S    1    1.000000
   2.18776000E+02    7.35006000E-02 
S    1    1.000000
   6.36916000E+01    2.48937000E-01 
S    1    1.000000
   1.88282000E+01    6.02460000E-01 
S    1    1.000000
   2.72023000E+00    2.56202000E-01 
SP   3    1.000000
   3.06331000E+01    1.11906000E-01   3.83119000E-02 
   7.02614000E+00    9.21666000E-01   2.37403000E-01 
   2.11205000E+00   -2.56919000E-03   8.17592000E-01 
SP   1    1.000000
   6.84009000E-01    1.00000000E+00   1.00000000E+00 
SP   1    1.000000
   2.00878000E-01    1.00000000E+00   1.00000000E+00 
SP   1    1.000000
   6.39000000E-02    1.00000000E+00   1.00000000E+00 
SP   1    1.000000
   1.92469880E-02    1.00000000E+00   1.00000000E+00 
D    1    1.000000
   9.13000000E-01    1.00000000E+00 

11    0
S    1    1.000000
   4.56324000E+03    1.96665000E-03 
S    1    1.000000
   6.82024000E+02    1.52306000E-02 
S    1    1.000000
   1.54973000E+02    7.61269000E-02 
S    1    1.000000
   4.44553000E+01    2.60801000E-01 
S    1    1.000000
   1.30290000E+01    6.16462000E-01 
S    1    1.000000
   1.82773000E+00    2.21006000E-01 
SP   3    1.000000
   2.09642000E+01    1.14660000E-01   4.02487000E-02 
   4.80331000E+00    9.19999000E-01   2.37594000E-01 
   1.45933000E+00   -3.03068000E-03   8.15854000E-01 
SP   1    1.000000
   4.83456000E-01    1.00000000E+00   1.00000000E+00 
SP   1    1.000000
   1.45585000E-01    1.00000000E+00   1.00000000E+00 
SP   1    1.000000
   4.38000000E-02    1.00000000E+00   1.00000000E+00 
SP   1    1.000000
   1.31927711E-02    1.00000000E+00   1.00000000E+00 
D    1    1.000000
   6.26000000E-01    1.00000000E+00 

12    0
S    3    1.000000
   3.38650000E+01    2.54938000E-02 
   5.09479000E+00    1.90373000E-01 
   1.15879000E+00    8.52161000E-01 
S    1    1.000000
   3.25840000E-01    1.00000000E+00 
S    1    1.000000
   1.02741000E-01    1.00000000E+00 
S    1    1.000000
   3.60000000E-02    1.00000000E+00 
P    1    1.000000
   7.50000000E-01    1.00000000E+00 

[MO]
Sym=X
Ene=0.020785
Spin=Alpha
Occup=1
1    -1.7200229e-09
2    5.01206556e-08
3    -5.91164401e-08
4    1.66936513e-06
5    6.65610179e-06
6    -3.33442904e-06
7    -1.62073767e-06
8    6.18478248e-07
9    -7.76212306e-16
10    -1.94584504e-05
11    1.66739173e-05
12    -5.42975771e-06
13    -2.53423839e-15
14    0.000149571927
15    2.6602029e-05
16    0.000148537906
17    6.01220961e-16
18    0.00288043252
19    -5.68230221e-06
20    0.00121480038
21    -4.83911474e-14
22    0.000314800609
23    0.000236381831
24    -0.000201691824
25    -9.28997841e-15
26    7.60685707e-06
27    1.04509214e-16
28    -2.71648778e-06
29    4.37336205e-16
30    4.78528306e-06
31    -6.87866298e-06
32    1.15013154e-05
33    2.50968262e-05
34    -9.54284936e-05
35    -3.36462799e-06
36    8.15535035e-06
37    -1.0595726e-15
38    -1.26341774e-06
39    1.96016514e-05
40    0.000111715752
41    0.000764843229
42    1.12405947e-06
43    3.57659974e-06
44    -2.58317831e-16
45    -5.55386278e-06
46    -9.54592617e-07
47    9.75632873e-05
48    -0.000125614094
49    -8.55091242e-06
50    -4.54116267e-07
51    3.14319495e-16
52    8.93233399e-09
53    1.29003427e-07
54    2.76496829e-07
55    3.22626283e-06
56    7.12149653e-06
57    0.000120337857
58    1.44571136e-05
59    3.51003506e-05
60    -2.16322215e-05
61    -2.46175553e-15
62    -0.000446176009
63    0.000453435916
64    -0.000272766725
65    9.88295388e-16
66    0.000890639975
67    -0.00046922026
68    0.00028581114
69    -6.32530761e-15
70    0.0021492543
71    -0.00270415375
72    0.00173888954
73    -4.94861472e-14
74    -0.0013931799
75    -0.000107611062
76    -0.000231980437
77    -5.73145814e-15
78    0.000243927509
79    6.14347308e-16
80    8.00363049e-05
81    1.099037e-15
82    -0.000127609748
83    -0.00104384941
84    -0.00794069095
85    -0.0389355517
86    -0.132509624
87    -0.327964761
88    -0.155520527
89    -0.471287963
90    -0.00159310001
91    0.000975079225
92    -9.90696298e-16
93    -0.00493927704
94    0.000742635618
95    -0.000452855554
96    -7.10630785e-16
97    0.000586104495
98    -0.000409131061
99    0.000250299791
100    -5.1106489e-15
101    -0.00323875098
102    -0.000235865205
103    0.000142246462
104    5.64760252e-15
105    -0.00755008689
106    -0.00139644911
107    0.000692606029
108    -4.629475e-15
109    -8.60937778e-05
110    7.73346527e-16
111    7.5254197e-05
112    -1.85391872e-16
113    4.74859057e-05
114    8.09992263e-10
115    -1.93337365e-09
116    5.05009654e-08
117    -6.48019691e-08
118    1.66946139e-06
119    6.4846205e-06
120    -3.3163189e-06
121    -2.03695563e-06
122    -5.53111962e-07
123    1.89044697e-15
124    -1.6571501e-05
125    1.11978322e-05
126    -2.66403488e-06
127    -1.00830178e-15
128    -6.07581249e-05
129    -0.000236889844
130    -0.000157474869
131    9.57270132e-15
132    0.00186128985
133    -0.00111836481
134    -0.000398828862
135    -6.86385997e-14
136    0.000408245042
137    -0.000173731068
138    0.000252713746
139    -4.4953594e-14
140    -3.88411876e-06
141    9.11564378e-16
142    5.29639413e-07
143    1.14119654e-15
144    -5.58889348e-06
145    -3.18595822e-07
146    -2.42794659e-06
147    -1.18736813e-05
148    -4.05290057e-05
149    -9.92475649e-05
150    -4.38107666e-05
151    -0.000146249804
152    -1.19526436e-06
153    4.78189265e-07
154    7.18602623e-16
155    -1.30091219e-05
156    5.32731397e-06
157    1.47919545e-07
158    2.90618858e-15
159    9.28380858e-05
160    -5.59373872e-05
161    -2.40526114e-05
162    -1.10847219e-15
163    0.000454604741
164    -4.22365913e-05
165    -7.21276872e-05
166    9.36198477e-15
167    0.00238139735
168    -0.000382816668
169    -7.92774494e-05
170    1.52376902e-14
171    1.63939763e-06
172    1.66469506e-16
173    -1.23489673e-06
174    5.22165176e-17
175    4.58512136e-07
176    1.31372361e-09
177    -2.50835776e-08
178    1.26584973e-07
179    -5.51806148e-07
180    6.80774938e-06
181    2.76269418e-05
182    -1.88764146e-05
183    -1.67308298e-05
184    1.49245696e-06
185    -1.76921856e-15
186    -3.92023246e-05
187    5.50347187e-05
188    5.5908193e-07
189    5.76627001e-15
190    -2.0975568e-05
191    -1.33545349e-05
192    1.90021377e-05
193    -1.40748452e-14
194    -0.000191282293
195    3.86946049e-05
196    -0.000213160964
197    4.14622426e-14
198    0.00142465795
199    -0.00233448798
200    7.26462442e-05
201    4.41687801e-14
202    -3.89708358e-06
203    3.69572074e-16
204    4.50535695e-06
205    1.22054132e-15
206    -3.15366656e-05
207    1.3134322e-09
208    -2.76153758e-08
209    1.32270662e-07
210    -6.0351527e-07
211    7.26539051e-06
212    2.95966972e-05
213    -2.0220204e-05
214    -8.70003225e-06
215    1.47642783e-05
216    -3.01569368e-15
217    -4.43348575e-05
218    2.37681432e-05
219    -5.1288054e-05
220    1.79812042e-15
221    7.98061149e-06
222    -7.68675601e-06
223    1.93170367e-05
224    -1.58950644e-14
225    -0.00019400592
226    5.90253539e-05
227    1.3837938e-05
228    3.69206822e-14
229    0.00192128087
230    -0.000379538878
231    0.000770607363
232    1.41714715e-14
233    2.04205387e-05
234    -2.09253742e-16
235    4.10639687e-06
236    -2.55051868e-17
237    2.38394653e-05
238    -3.56791606e-11
239    -2.833623e-10
240    -1.41676797e-09
241    -1.8557331e-09
242    6.6922639e-08
243    1.08403519e-06
244    -2.93597578e-07
245    -1.28381929e-06
246    5.49204604e-08
247    -4.49648723e-16
248    5.99906784e-08
249    1.35005815e-05
250    -1.07561384e-06
251    -5.4153415e-16
252    -0.000236761677
253    0.000144775754
254    -7.93277953e-05
255    -5.27833935e-15
256    -0.00307359664
257    0.000722972685
258    -0.000413159218
259    5.2869705e-14
260    0.000115103831
261    0.000110586124
262    0.000282282244
263    2.88173899e-14
264    -5.79002857e-06
265    3.09036615e-16
266    -1.28831348e-06
267    6.45549802e-16
268    -2.93417869e-07
269    -5.95771801e-07
270    -2.44302009e-05
271    -5.53144919e-05
272    -6.95551318e-05
273    3.63084008e-06
274    -2.5183903e-06
275    1.18869654e-16
[5D]