[Molden Format]
[Atoms] (Angs)
  C      1    6     -0.00714236     -1.70213747     -0.00000000
  H      2    1     -2.06882847     -1.44022412      0.00000000
  H      3    1     -0.12337987     -2.77567521      0.00000000
  H      4    1      0.04651892      1.98813947     -0.00000000
  C      5    6     -1.21953563      0.40211669      0.00000000
  O      6    8     -2.25921553      1.03043814      0.00000000
  C      7    6      1.28797806      0.34644937     -0.00000000
  O      8    8      2.31273661      1.00537216     -0.00000000
  N      9    7      0.03446295      0.97739857     -0.00000000
  N     10    7     -1.17287765     -0.98229824      0.00000000
  C     11    6      1.20107039     -1.10433419     -0.00000000
  H     12    1      2.11220096     -1.67699125     -0.00000000
[GTO]
1    0
S    1    1.000000
   4.56324000E+03    1.96665000E-03 
S    1    1.000000
   6.82024000E+02    1.52306000E-02 
S    1    1.000000
   1.54973000E+02    7.61269000E-02 
S    1    1.000000
   4.44553000E+01    2.60801000E-01 
S    1    1.000000
   1.30290000E+01    6.16462000E-01 
S    1    1.000000
   1.82773000E+00    2.21006000E-01 
SP   3    1.000000
   2.09642000E+01    1.14660000E-01   4.02487000E-02 
   4.80331000E+00    9.19999000E-01   2.37594000E-01 
   1.45933000E+00   -3.03068000E-03   8.15854000E-01 
SP   1    1.000000
   4.83456000E-01    1.00000000E+00   1.00000000E+00 
SP   1    1.000000
   1.45585000E-01    1.00000000E+00   1.00000000E+00 
SP   1    1.000000
   4.38000000E-02    1.00000000E+00   1.00000000E+00 
SP   1    1.000000
   1.31927711E-02    1.00000000E+00   1.00000000E+00 
D    1    1.000000
   6.26000000E-01    1.00000000E+00 

2    0
S    3    1.000000
   3.38650000E+01    2.54938000E-02 
   5.09479000E+00    1.90373000E-01 
   1.15879000E+00    8.52161000E-01 
S    1    1.000000
   3.25840000E-01    1.00000000E+00 
S    1    1.000000
   1.02741000E-01    1.00000000E+00 
S    1    1.000000
   3.60000000E-02    1.00000000E+00 
P    1    1.000000
   7.50000000E-01    1.00000000E+00 

3    0
S    3    1.000000
   3.38650000E+01    2.54938000E-02 
   5.09479000E+00    1.90373000E-01 
   1.15879000E+00    8.52161000E-01 
S    1    1.000000
   3.25840000E-01    1.00000000E+00 
S    1    1.000000
   1.02741000E-01    1.00000000E+00 
S    1    1.000000
   3.60000000E-02    1.00000000E+00 
P    1    1.000000
   7.50000000E-01    1.00000000E+00 

4    0
S    3    1.000000
   3.38650000E+01    2.54938000E-02 
   5.09479000E+00    1.90373000E-01 
   1.15879000E+00    8.52161000E-01 
S    1    1.000000
   3.25840000E-01    1.00000000E+00 
S    1    1.000000
   1.02741000E-01    1.00000000E+00 
S    1    1.000000
   3.60000000E-02    1.00000000E+00 
P    1    1.000000
   7.50000000E-01    1.00000000E+00 

5    0
S    1    1.000000
   4.56324000E+03    1.96665000E-03 
S    1    1.000000
   6.82024000E+02    1.52306000E-02 
S    1    1.000000
   1.54973000E+02    7.61269000E-02 
S    1    1.000000
   4.44553000E+01    2.60801000E-01 
S    1    1.000000
   1.30290000E+01    6.16462000E-01 
S    1    1.000000
   1.82773000E+00    2.21006000E-01 
SP   3    1.000000
   2.09642000E+01    1.14660000E-01   4.02487000E-02 
   4.80331000E+00    9.19999000E-01   2.37594000E-01 
   1.45933000E+00   -3.03068000E-03   8.15854000E-01 
SP   1    1.000000
   4.83456000E-01    1.00000000E+00   1.00000000E+00 
SP   1    1.000000
   1.45585000E-01    1.00000000E+00   1.00000000E+00 
SP   1    1.000000
   4.38000000E-02    1.00000000E+00   1.00000000E+00 
SP   1    1.000000
   1.31927711E-02    1.00000000E+00   1.00000000E+00 
D    1    1.000000
   6.26000000E-01    1.00000000E+00 

6    0
S    1    1.000000
   8.58850000E+03    1.89515000E-03 
S    1    1.000000
   1.29723000E+03    1.43859000E-02 
S    1    1.000000
   2.99296000E+02    7.07320000E-02 
S    1    1.000000
   8.73771000E+01    2.40001000E-01 
S    1    1.000000
   2.56789000E+01    5.94797000E-01 
S    1    1.000000
   3.74004000E+00    2.80802000E-01 
SP   3    1.000000
   4.21175000E+01    1.13889000E-01   3.65114000E-02 
   9.62837000E+00    9.20811000E-01   2.37153000E-01 
   2.85332000E+00   -3.27447000E-03   8.19702000E-01 
SP   1    1.000000
   9.05661000E-01    1.00000000E+00   1.00000000E+00 
SP   1    1.000000
   2.55611000E-01    1.00000000E+00   1.00000000E+00 
SP   1    1.000000
   8.45000000E-02    1.00000000E+00   1.00000000E+00 
SP   1    1.000000
   2.54518072E-02    1.00000000E+00   1.00000000E+00 
D    1    1.000000
   1.29200000E+00    1.00000000E+00 

7    0
S    1    1.000000
   4.56324000E+03    1.96665000E-03 
S    1    1.000000
   6.82024000E+02    1.52306000E-02 
S    1    1.000000
   1.54973000E+02    7.61269000E-02 
S    1    1.000000
   4.44553000E+01    2.60801000E-01 
S    1    1.000000
   1.30290000E+01    6.16462000E-01 
S    1    1.000000
   1.82773000E+00    2.21006000E-01 
SP   3    1.000000
   2.09642000E+01    1.14660000E-01   4.02487000E-02 
   4.80331000E+00    9.19999000E-01   2.37594000E-01 
   1.45933000E+00   -3.03068000E-03   8.15854000E-01 
SP   1    1.000000
   4.83456000E-01    1.00000000E+00   1.00000000E+00 
SP   1    1.000000
   1.45585000E-01    1.00000000E+00   1.00000000E+00 
SP   1    1.000000
   4.38000000E-02    1.00000000E+00   1.00000000E+00 
SP   1    1.000000
   1.31927711E-02    1.00000000E+00   1.00000000E+00 
D    1    1.000000
   6.26000000E-01    1.00000000E+00 

8    0
S    1    1.000000
   8.58850000E+03    1.89515000E-03 
S    1    1.000000
   1.29723000E+03    1.43859000E-02 
S    1    1.000000
   2.99296000E+02    7.07320000E-02 
S    1    1.000000
   8.73771000E+01    2.40001000E-01 
S    1    1.000000
   2.56789000E+01    5.94797000E-01 
S    1    1.000000
   3.74004000E+00    2.80802000E-01 
SP   3    1.000000
   4.21175000E+01    1.13889000E-01   3.65114000E-02 
   9.62837000E+00    9.20811000E-01   2.37153000E-01 
   2.85332000E+00   -3.27447000E-03   8.19702000E-01 
SP   1    1.000000
   9.05661000E-01    1.00000000E+00   1.00000000E+00 
SP   1    1.000000
   2.55611000E-01    1.00000000E+00   1.00000000E+00 
SP   1    1.000000
   8.45000000E-02    1.00000000E+00   1.00000000E+00 
SP   1    1.000000
   2.54518072E-02    1.00000000E+00   1.00000000E+00 
D    1    1.000000
   1.29200000E+00    1.00000000E+00 

9    0
S    1    1.000000
   6.29348000E+03    1.96979000E-03 
S    1    1.000000
   9.49044000E+02    1.49613000E-02 
S    1    1.000000
   2.18776000E+02    7.35006000E-02 
S    1    1.000000
   6.36916000E+01    2.48937000E-01 
S    1    1.000000
   1.88282000E+01    6.02460000E-01 
S    1    1.000000
   2.72023000E+00    2.56202000E-01 
SP   3    1.000000
   3.06331000E+01    1.11906000E-01   3.83119000E-02 
   7.02614000E+00    9.21666000E-01   2.37403000E-01 
   2.11205000E+00   -2.56919000E-03   8.17592000E-01 
SP   1    1.000000
   6.84009000E-01    1.00000000E+00   1.00000000E+00 
SP   1    1.000000
   2.00878000E-01    1.00000000E+00   1.00000000E+00 
SP   1    1.000000
   6.39000000E-02    1.00000000E+00   1.00000000E+00 
SP   1    1.000000
   1.92469880E-02    1.00000000E+00   1.00000000E+00 
D    1    1.000000
   9.13000000E-01    1.00000000E+00 

10    0
S    1    1.000000
   6.29348000E+03    1.96979000E-03 
S    1    1.000000
   9.49044000E+02    1.49613000E-02 
S    1    1.000000
   2.18776000E+02    7.35006000E-02 
S    1    1.000000
   6.36916000E+01    2.48937000E-01 
S    1    1.000000
   1.88282000E+01    6.02460000E-01 
S    1    1.000000
   2.72023000E+00    2.56202000E-01 
SP   3    1.000000
   3.06331000E+01    1.11906000E-01   3.83119000E-02 
   7.02614000E+00    9.21666000E-01   2.37403000E-01 
   2.11205000E+00   -2.56919000E-03   8.17592000E-01 
SP   1    1.000000
   6.84009000E-01    1.00000000E+00   1.00000000E+00 
SP   1    1.000000
   2.00878000E-01    1.00000000E+00   1.00000000E+00 
SP   1    1.000000
   6.39000000E-02    1.00000000E+00   1.00000000E+00 
SP   1    1.000000
   1.92469880E-02    1.00000000E+00   1.00000000E+00 
D    1    1.000000
   9.13000000E-01    1.00000000E+00 

11    0
S    1    1.000000
   4.56324000E+03    1.96665000E-03 
S    1    1.000000
   6.82024000E+02    1.52306000E-02 
S    1    1.000000
   1.54973000E+02    7.61269000E-02 
S    1    1.000000
   4.44553000E+01    2.60801000E-01 
S    1    1.000000
   1.30290000E+01    6.16462000E-01 
S    1    1.000000
   1.82773000E+00    2.21006000E-01 
SP   3    1.000000
   2.09642000E+01    1.14660000E-01   4.02487000E-02 
   4.80331000E+00    9.19999000E-01   2.37594000E-01 
   1.45933000E+00   -3.03068000E-03   8.15854000E-01 
SP   1    1.000000
   4.83456000E-01    1.00000000E+00   1.00000000E+00 
SP   1    1.000000
   1.45585000E-01    1.00000000E+00   1.00000000E+00 
SP   1    1.000000
   4.38000000E-02    1.00000000E+00   1.00000000E+00 
SP   1    1.000000
   1.31927711E-02    1.00000000E+00   1.00000000E+00 
D    1    1.000000
   6.26000000E-01    1.00000000E+00 

12    0
S    3    1.000000
   3.38650000E+01    2.54938000E-02 
   5.09479000E+00    1.90373000E-01 
   1.15879000E+00    8.52161000E-01 
S    1    1.000000
   3.25840000E-01    1.00000000E+00 
S    1    1.000000
   1.02741000E-01    1.00000000E+00 
S    1    1.000000
   3.60000000E-02    1.00000000E+00 
P    1    1.000000
   7.50000000E-01    1.00000000E+00 

[MO]
Sym=X
Ene=0.92401
Spin=Alpha
Occup=1
1    -1.69286497e-09
2    1.15898101e-08
3    -1.22100098e-07
4    2.98420566e-07
5    -4.76212632e-06
6    -1.86036863e-05
7    1.06950146e-05
8    -9.79239107e-07
9    -2.4504966e-06
10    -6.91100525e-17
11    4.97144641e-05
12    1.3740629e-05
13    1.53488583e-05
14    -8.38872988e-16
15    -0.000334597712
16    -2.98560665e-05
17    -0.00020029438
18    -5.08101778e-15
19    0.00206734052
20    0.000440773454
21    -0.000231400529
22    4.94888804e-14
23    0.000666250474
24    0.000276542737
25    4.8090885e-05
26    -1.07348805e-13
27    1.41480442e-05
28    -1.33423932e-17
29    3.57162774e-06
30    -1.508096e-16
31    -7.91095652e-06
32    3.55170498e-07
33    2.50785205e-05
34    -7.43143728e-06
35    0.00012241871
36    7.90280763e-07
37    1.90368783e-06
38    -2.33136572e-16
39    -1.49545299e-06
40    -7.41577962e-06
41    -0.000162192365
42    -0.000299837946
43    3.0511411e-06
44    -3.13749221e-06
45    1.5739286e-16
46    7.15917153e-06
47    -3.45111711e-08
48    7.50401063e-06
49    0.000118661665
50    -5.1348377e-06
51    -1.04352146e-06
52    -5.31779012e-17
53    -9.16201494e-10
54    2.00244035e-09
55    -5.66718543e-08
56    6.88036447e-08
57    -1.87624908e-06
58    -7.3645115e-06
59    3.7399487e-06
60    -6.03016977e-07
61    5.97458097e-07
62    8.1084844e-16
63    2.11027315e-05
64    5.11125554e-06
65    2.47784336e-06
66    -2.84255064e-15
67    -4.57191474e-05
68    -0.000266360114
69    0.000111046503
70    3.51632795e-15
71    -0.000984695733
72    -0.0011517598
73    0.000125354545
74    1.82342224e-14
75    -0.00107113517
76    -0.000245168897
77    -0.000437095281
78    5.26042507e-14
79    -3.12362683e-06
80    4.95489275e-16
81    1.49353201e-06
82    3.41458038e-16
83    5.00815982e-06
84    2.84037377e-08
85    2.19014838e-07
86    1.0527644e-06
87    3.66344513e-06
88    8.34432001e-06
89    1.71241341e-06
90    1.44764855e-05
91    -1.7580249e-06
92    -6.15062328e-07
93    -6.2581127e-16
94    8.71568211e-06
95    5.83699471e-06
96    1.23982131e-06
97    1.45101063e-15
98    -7.75427224e-05
99    -4.96459142e-05
100    1.93575542e-05
101    -4.88774986e-15
102    -0.000452376993
103    -2.56451421e-05
104    8.50730374e-05
105    6.23844873e-15
106    -0.0024891487
107    -0.00038917059
108    8.59022286e-05
109    -2.06964068e-14
110    1.701675e-06
111    5.74958961e-17
112    1.12015176e-06
113    3.3358316e-16
114    -6.63951093e-08
115    -7.8719572e-09
116    -1.20478925e-07
117    -2.34444435e-07
118    -3.05081513e-06
119    -6.3408604e-06
120    -0.000112877792
121    -1.47010928e-05
122    3.22211425e-05
123    2.49242119e-05
124    -4.46454292e-16
125    0.000416069256
126    0.000433489637
127    0.000287156204
128    3.15465436e-15
129    -0.000803801069
130    -0.000327015558
131    -0.000212190634
132    -3.99307098e-15
133    -0.000396497264
134    -0.00317675619
135    -0.00166094819
136    7.29936551e-14
137    0.00018994619
138    -0.000439866994
139    0.000744585995
140    -6.41062401e-14
141    0.000248846931
142    5.7408727e-16
143    -7.36603072e-05
144    3.97980247e-16
145    0.000112529802
146    0.00104385846
147    0.00794076078
148    0.0389358877
149    0.132510477
150    0.327965298
151    0.155500082
152    0.471306909
153    -0.00155769798
154    -0.000937586981
155    1.08711663e-15
156    0.00493804622
157    0.000723774024
158    0.00043426097
159    -5.65825104e-16
160    -0.000639090807
161    -0.000388898314
162    -0.000223590332
163    6.57349484e-15
164    0.00302016084
165    -0.000151001837
166    -0.000147232907
167    -1.35296345e-14
168    0.00642950657
169    -0.00119545433
170    -0.000375795622
171    -4.19032593e-15
172    -9.17404884e-05
173    6.04615783e-17
174    -0.000107304866
175    -1.79870942e-16
176    -4.551589e-05
177    -7.82153944e-10
178    2.43588973e-08
179    -9.54033467e-08
180    5.21696912e-07
181    -5.81678465e-06
182    -2.40125477e-05
183    1.69519959e-05
184    -1.73760928e-05
185    1.30729873e-06
186    7.64021277e-16
187    2.40810955e-05
188    5.70472627e-05
189    -8.66671109e-06
190    -4.43294621e-16
191    0.000123099413
192    -4.83527459e-05
193    -5.73135606e-05
194    6.75154352e-15
195    -0.000144621684
196    -9.83835945e-05
197    9.73010239e-05
198    -3.02036806e-14
199    -0.002175462
200    -0.00283156577
201    5.58853396e-05
202    -2.77138474e-14
203    -1.23809767e-05
204    6.3032808e-16
205    -6.281488e-06
206    2.56876979e-16
207    2.84261602e-05
208    -1.69393653e-10
209    3.71853661e-09
210    -1.79357269e-08
211    8.09330963e-08
212    -9.34938644e-07
213    -3.68441999e-06
214    2.36179023e-06
215    -5.1365045e-07
216    5.77304972e-07
217    3.43625458e-16
218    2.62435276e-06
219    4.08372146e-06
220    -2.61515687e-06
221    -3.47729244e-15
222    0.000117880885
223    9.70242313e-05
224    3.27084337e-05
225    5.55958543e-15
226    0.000667990416
227    0.000250170788
228    3.27459752e-05
229    -3.14786484e-14
230    2.49027676e-05
231    0.000256256848
232    -0.00012200872
233    9.76260344e-15
234    -4.01740436e-06
235    8.15748855e-17
236    4.81381556e-07
237    2.40187999e-16
238    -1.41850875e-06
239    1.39435841e-09
240    1.86091696e-08
241    3.94096269e-08
242    3.42911273e-07
243    -1.34294579e-06
244    -1.03359184e-05
245    7.16960794e-06
246    -7.90821733e-06
247    -1.38878663e-05
248    9.59414418e-16
249    7.68674257e-06
250    2.12694992e-05
251    7.06298917e-05
252    -3.96526996e-15
253    0.000178578946
254    -0.000131045823
255    -2.15788872e-05
256    1.08990159e-14
257    -0.00348411241
258    0.00170352795
259    -7.36094065e-05
260    -7.57557379e-14
261    0.000497271332
262    0.000309605744
263    0.000174642535
264    1.22019977e-13
265    3.97224204e-05
266    2.03811007e-16
267    2.14808724e-08
268    -1.97277986e-16
269    -3.96680634e-05
270    5.69235232e-06
271    5.3544413e-05
272    -6.90780949e-05
273    -0.00096050378
274    -1.47190453e-05
275    6.04070693e-06
276    -1.37801171e-16
Sym=X
Ene=0.925359
Spin=Alpha
Occup=1
1    8.11566933e-10
2    -1.71613887e-09
3    5.00797386e-08
4    -5.90164328e-08
5    1.66776928e-06
6    6.64986746e-06
7    -3.33084497e-06
8    -1.62106593e-06
9    6.17657041e-07
10    -7.7623551e-16
11    -1.94417906e-05
12    1.66785232e-05
13    -5.42461411e-06
14    -2.53451966e-15
15    0.0001494598
16    2.65920247e-05
17    0.000148470789
18    5.99518179e-16
19    0.00288112552
20    -5.53458494e-06
21    0.00121472289
22    -4.83745647e-14
23    0.000315023909
24    0.000236474523
25    -0.000201675719
26    -9.32595501e-15
27    7.61159896e-06
28    1.04504748e-16
29    -2.71529096e-06
30    4.37285688e-16
31    4.78263211e-06
32    -6.87854433e-06
33    1.15097207e-05
34    2.5094337e-05
35    -9.53874724e-05
36    -3.36436332e-06
37    8.15598879e-06
38    -1.05965079e-15
39    -1.26391899e-06
40    1.95991672e-05
41    0.000111661402
42    0.000764742786
43    1.12508207e-06
44    3.57554846e-06
45    -2.58265098e-16
46    -5.55146382e-06
47    -9.54604236e-07
48    9.75658075e-05
49    -0.000125574334
50    -8.55263374e-06
51    -4.5446601e-07
52    3.1430169e-16
53    8.93202744e-09
54    1.29004105e-07
55    2.76477852e-07
56    3.22628606e-06
57    7.12086813e-06
58    0.000120335396
59    1.44583678e-05
60    3.51001505e-05
61    -2.16320225e-05
62    -2.46148393e-15
63    -0.000446168961
64    0.000453437654
65    -0.00027276591
66    9.87342811e-16
67    0.000890624703
68    -0.000469309552
69    0.000285848371
70    -6.32412953e-15
71    0.00214892441
72    -0.00270453989
73    0.00173893164
74    -4.9480039e-14
75    -0.00139353895
76    -0.000107693232
77    -0.000232126935
78    -5.71382905e-15
79    0.000243926475
80    6.14513397e-16
81    8.00368098e-05
82    1.0991515e-15
83    -0.000127608077
84    -0.00104384945
85    -0.00794069131
86    -0.0389355535
87    -0.13250963
88    -0.327964777
89    -0.155520535
90    -0.471287984
91    -0.00159310069
92    0.000975079073
93    -9.90906083e-16
94    -0.0049392744
95    0.000742637615
96    -0.000452855163
97    -7.10144543e-16
98    0.000586078541
99    -0.000409147721
100    0.000250306292
101    -5.11228722e-15
102    -0.00323890277
103    -0.000235873812
104    0.00014227498
105    5.64969354e-15
106    -0.00755092151
107    -0.00139657961
108    0.000692634856
109    -4.6364113e-15
110    -8.60932123e-05
111    7.73365839e-16
112    7.52545766e-05
113    -1.85280087e-16
114    4.7485886e-05
115    8.07354158e-10
116    -1.97375019e-09
117    5.04223982e-08
118    -6.58244006e-08
119    1.66733646e-06
120    6.44679182e-06
121    -3.3212459e-06
122    -2.02615738e-06
123    -5.44759074e-07
124    1.89029745e-15
125    -1.64320635e-05
126    1.13431093e-05
127    -2.5677996e-06
128    -1.00724461e-15
129    -6.10275083e-05
130    -0.000236999451
131    -0.00015754599
132    9.57136364e-15
133    0.00186115708
134    -0.00111942951
135    -0.000399385522
136    -6.86141409e-14
137    0.000408308722
138    -0.000173878492
139    0.000252963295
140    -4.49750806e-14
141    -3.80072223e-06
142    9.11756824e-16
143    5.04953465e-07
144    1.14132998e-15
145    -5.55118137e-06
146    3.12352554e-08
147    2.33261809e-07
148    1.17500694e-06
149    3.87958489e-06
150    1.06643229e-05
151    8.30239208e-06
152    1.1700541e-05
153    -1.71729994e-06
154    1.63973243e-07
155    7.18966991e-16
156    -1.13542219e-05
157    5.5698746e-06
158    2.93454602e-07
159    2.90599912e-15
160    9.26239107e-05
161    -5.60677228e-05
162    -2.41275451e-05
163    -1.10626926e-15
164    0.000455616921
165    -4.22871993e-05
166    -7.21770337e-05
167    9.35745107e-15
168    0.00238355222
169    -0.000383217325
170    -7.94033952e-05
171    1.52362868e-14
172    1.60865249e-06
173    1.66489778e-16
174    -1.27085817e-06
175    5.21562399e-17
176    4.43258299e-07
177    1.31346156e-09
178    -2.50754156e-08
179    1.26553007e-07
180    -5.51631341e-07
181    6.80580036e-06
182    2.7618896e-05
183    -1.88707345e-05
184    -1.67366541e-05
185    1.49289516e-06
186    -1.76896261e-15
187    -3.91942564e-05
188    5.50538401e-05
189    5.56177463e-07
190    5.76612177e-15
191    -2.09343145e-05
192    -1.33707402e-05
193    1.89829311e-05
194    -1.40725833e-14
195    -0.000191330771
196    3.86616355e-05
197    -0.000213128367
198    4.14521227e-14
199    0.00142392896
200    -0.00233543706
201    7.26649773e-05
202    4.41594947e-14
203    -3.90123306e-06
204    3.69783338e-16
205    4.50325207e-06
206    1.22062747e-15
207    -3.15271408e-05
208    1.31337551e-09
209    -2.76141311e-08
210    1.32264659e-07
211    -6.0348818e-07
212    7.26507758e-06
213    2.9595464e-05
214    -2.02194136e-05
215    -8.70020487e-06
216    1.47644726e-05
217    -3.01557869e-15
218    -4.43339804e-05
219    2.37695131e-05
220    -5.12889332e-05
221    1.79695517e-15
222    8.02011767e-06
223    -7.65424044e-06
224    1.93279995e-05
225    -1.58932021e-14
226    -0.000193782065
227    5.91091976e-05
228    1.38489131e-05
229    3.69101347e-14
230    0.00192128932
231    -0.000379453019
232    0.000770566516
233    1.41747441e-14
234    2.04191934e-05
235    -2.09226415e-16
236    4.10655842e-06
237    -2.54246933e-17
238    2.38389912e-05
239    -3.52118675e-11
240    -2.77125775e-10
241    -1.40356059e-09
242    -1.74081242e-09
243    6.64725777e-08
244    1.08057134e-06
245    -2.91194824e-07
246    -1.28646967e-06
247    5.02661855e-08
248    -4.49327217e-16
249    6.25667604e-08
250    1.35077104e-05
251    -1.05194351e-06
252    -5.42863071e-16
253    -0.000236701842
254    0.000144731844
255    -7.93350315e-05
256    -5.27468703e-15
257    -0.00307476445
258    0.000723543633
259    -0.00041318391
260    5.28443197e-14
261    0.000115270489
262    0.000110689889
263    0.000282340788
264    2.88582844e-14
265    -5.77671661e-06
266    3.09104935e-16
267    -1.28830635e-06
268    6.45483723e-16
269    -3.0671195e-07
270    -5.93864141e-07
271    -2.44122577e-05
272    -5.53376453e-05
273    -6.98770319e-05
274    3.62590745e-06
275    -2.516366e-06
276    1.18823479e-16
Sym=X
Ene=1.4e-05
Spin=Alpha
Occup=1
1    1.30760377e-09
2    -5.31132157e-09
3    8.62956272e-08
4    -1.50817966e-07
5    3.09506001e-06
6    1.22187304e-05
7    -6.55783457e-06
8    -1.22569981e-06
9    1.36458961e-06
10    -7.14004016e-16
11    -3.42367185e-05
12    1.14455187e-05
13    -1.00223771e-05
14    -2.13639346e-15
15    0.000248070199
16    3.47034405e-05
17    0.000204439815
18    2.18358811e-15
19    0.00207451291
20    -0.000145361657
21    0.0012252745
22    -6.15970672e-14
23    8.68945747e-05
24    0.000136300724
25    -0.000206502233
26    2.52820752e-14
27    2.71937736e-06
28    1.03325496e-16
29    -3.7098091e-06
30    4.62543807e-16
31    7.04931564e-06
32    -6.63466304e-06
33    2.9407005e-06
34    2.61550404e-05
35    -0.000129354572
36    -3.44107328e-06
37    7.12779621e-06
38    -9.30577656e-16
39    -7.2298241e-07
40    2.09399226e-05
41    0.000157427735
42    0.000820389503
43    9.68208838e-08
44    4.38744177e-06
45    -2.94901553e-16
46    -7.5392895e-06
47    -8.94119297e-07
48    9.01197656e-05
49    -0.00015678137
50    -6.4767417e-06
51    -9.9176115e-08
52    3.14903473e-16
53    8.75997577e-09
54    1.2167624e-07
55    2.80152188e-07
56    3.03707011e-06
57    7.34794192e-06
58    0.000116434758
59    1.25195615e-05
60    3.34712265e-05
61    -2.06999108e-05
62    -2.59156351e-15
63    -0.000429734776
64    0.000428293482
65    -0.000259405456
66    1.83972722e-15
67    0.000858962134
68    -0.000360295692
69    0.000235721945
70    -7.1138817e-15
71    0.00235047918
72    -0.00219813367
73    0.00160888685
74    -5.27098943e-14
75    -0.000980762292
76    -2.41723928e-05
77    -8.11418047e-05
78    -2.21394262e-14
79    0.00023226718
80    4.25131807e-16
81    7.54106066e-05
82    9.33596002e-16
83    -0.00012258117
84    -0.000989714973
85    -0.00752888459
86    -0.0369163369
87    -0.125637643
88    -0.310956198
89    -0.147454372
90    -0.446847312
91    -0.00150990918
92    0.000924698137
93    -7.40574276e-16
94    -0.00468584934
95    0.000702262208
96    -0.0004297601
97    -1.13456082e-15
98    0.000580328657
99    -0.000372144041
100    0.000231169709
101    -3.29338768e-15
102    -0.00292710116
103    -0.000215487114
104    0.000107852082
105    3.37355576e-15
106    -0.00636800547
107    -0.00120042981
108    0.000629401713
109    2.18309964e-15
110    -8.21685692e-05
111    7.14975128e-16
112    7.09951144e-05
113    -2.81710012e-16
114    4.50439427e-05
115    3.2678345e-09
116    3.64267625e-08
117    1.22332807e-07
118    9.07390443e-07
119    3.5965015e-06
120    4.19942719e-05
121    1.52424348e-06
122    -1.21635983e-05
123    -8.43947252e-06
124    1.93416945e-15
125    -0.000147840863
126    -0.000127043996
127    -9.37165284e-05
128    -1.95780902e-15
129    0.000197652187
130    -0.000120754
131    -8.19225452e-05
132    1.0344233e-14
133    0.0018906601
134    -5.15306838e-05
135    0.00014931652
136    -8.82585906e-14
137    0.000326749564
138    -2.50335761e-05
139    3.15150026e-06
140    -2.22640157e-14
141    -8.27076549e-05
142    6.81972568e-16
143    2.38940811e-05
144    9.55619307e-16
145    -4.1034496e-05
146    -0.000331794671
147    -0.00252400734
148    -0.0123759214
149    -0.042119077
150    -0.104244302
151    -0.0494228757
152    -0.149809102
153    0.000493536627
154    0.000298197916
155    3.36099536e-16
156    -0.00158048353
157    -0.000224794091
158    -0.000137765709
159    2.93513349e-15
160    0.000290975347
161    7.04644081e-05
162    4.81993715e-05
163    -3.13848675e-15
164    -0.000528071643
165    7.9070329e-06
166    -2.16305201e-05
167    1.31729221e-14
168    0.000216092245
169    1.66737581e-05
170    4.41740197e-05
171    1.57780257e-14
172    3.06879046e-05
173    1.38634432e-16
174    3.29053941e-05
175    1.0662876e-16
176    1.48889696e-05
177    1.49396653e-09
178    -3.15180428e-08
179    1.50315869e-07
180    -6.88857025e-07
181    8.30184353e-06
182    3.38194968e-05
183    -2.32806689e-05
184    -1.03449843e-05
185    9.99892741e-07
186    -1.9200771e-15
187    -4.48162441e-05
188    3.40639244e-05
189    3.28232442e-06
190    5.60795392e-15
191    -5.89796141e-05
192    2.69327722e-06
193    3.62172791e-05
194    -1.54888486e-14
195    -0.000135433925
196    6.79307103e-05
197    -0.000233003882
198    4.89032593e-14
199    0.00204161227
200    -0.00131419502
201    5.1130943e-05
202    5.06787281e-14
203    2.36815522e-07
204    1.50232781e-16
205    6.26644734e-06
206    1.07565797e-15
207    -3.89280346e-05
208    1.2990992e-09
209    -2.73638691e-08
210    1.31105666e-07
211    -5.97913015e-07
212    7.18544528e-06
213    2.9231587e-05
214    -1.99214229e-05
215    -8.08565279e-06
216    1.38151379e-05
217    -2.9683959e-15
218    -4.28686534e-05
219    2.12384669e-05
220    -4.7797311e-05
221    2.809119e-15
222    -2.98681431e-05
223    -3.80995226e-05
224    7.92803682e-06
225    -1.6836131e-14
226    -0.0003960732
227    -2.34816457e-05
228    2.7212118e-06
229    4.500215e-14
230    0.00181371766
231    -0.000441230696
232    0.000769382372
233    1.03361528e-14
234    2.0637131e-05
235    -2.24305258e-16
236    3.74053227e-06
237    -1.00457488e-16
238    2.30534037e-05
239    -4.76627531e-10
240    -6.17827998e-09
241    -1.3858388e-08
242    -1.10655994e-07
243    4.89923608e-07
244    4.31013018e-06
245    -2.55518337e-06
246    1.29414185e-06
247    4.46236792e-06
248    -7.31002035e-16
249    -2.38415909e-06
250    6.0458773e-06
251    -2.34493833e-05
252    7.45784475e-16
253    -0.000281191449
254    0.000178881905
255    -6.83604469e-05
256    -8.46569976e-15
257    -0.00180774105
258    0.000144492451
259    -0.000368353302
260    7.41847532e-14
261    -4.87823154e-05
262    6.53027329e-06
263    0.000212180234
264    -1.14265779e-14
265    -1.8104144e-05
266    2.28284004e-16
267    -1.22831148e-06
268    6.74714286e-16
269    1.23189782e-05
270    -2.37255987e-06
271    -4.01668457e-05
272    -3.05086184e-05
273    0.000239074722
274    8.11676118e-06
275    -4.30607914e-06
276    1.56464789e-16
Sym=X
Ene=0.022614
Spin=Alpha
Occup=1
1    1.6934379e-09
2    -1.15910196e-08
3    1.22135448e-07
4    -2.98462186e-07
5    4.76330338e-06
6    1.86083797e-05
7    -1.06973651e-05
8    9.78093615e-07
9    2.45093236e-06
10    6.85616411e-17
11    -4.9728187e-05
12    -1.37288425e-05
13    -1.53526869e-05
14    8.37082194e-16
15    0.00033470322
16    2.98748458e-05
17    0.000200399222
18    5.08144006e-15
19    -0.00206530455
20    -0.000440777255
21    0.000232258648
22    -4.95230438e-14
23    -0.000666027751
24    -0.000276375604
25    -4.82333528e-05
26    1.0734219e-13
27    -1.41426632e-05
28    1.34162204e-17
29    -3.57354515e-06
30    1.51118496e-16
31    7.91433339e-06
32    -3.60029959e-07
33    -2.50703829e-05
34    7.44916407e-06
35    -0.000122486069
36    -7.9265742e-07
37    -1.89792532e-06
38    2.32387893e-16
39    1.49455968e-06
40    7.42962418e-06
41    0.000162271212
42    0.000300378146
43    -3.0503455e-06
44    3.14001749e-06
45    -1.5757528e-16
46    -7.16309175e-06
47    3.38367544e-08
48    -7.43508055e-06
49    -0.000118750352
50    5.12879417e-06
51    1.04320013e-06
52    5.33999357e-17
53    9.2251156e-10
54    -1.91130112e-09
55    5.68671661e-08
56    -6.65243234e-08
57    1.88127936e-06
58    7.44952414e-06
59    -3.72973324e-06
60    6.27814356e-07
61    -6.12740524e-07
62    -8.12587227e-16
63    -2.14179354e-05
64    -4.79090997e-06
65    -2.67054621e-06
66    2.84324747e-15
67    4.6348344e-05
68    0.00026602849
69    -0.00011084453
70    -3.52079494e-15
71    0.00098621366
72    0.00114984882
73    -0.000124125995
74    -1.82691745e-14
75    0.0010701504
76    0.000245092753
77    0.00043693118
78    -5.26082744e-14
79    3.29595506e-06
80    -4.95055011e-16
81    -1.43698729e-06
82    -3.40681426e-16
83    -5.09831104e-06
84    -7.65861741e-07
85    -5.82894866e-06
86    -2.85599259e-05
87    -9.72787525e-05
88    -0.000240044637
89    -0.000111584449
90    -0.000347431678
91    6.32531836e-07
92    1.30393534e-06
93    6.2511106e-16
94    -1.2205175e-05
95    -5.31233517e-06
96    -1.55975379e-06
97    -1.45151198e-15
98    7.79567556e-05
99    4.93568475e-05
100    -1.91807132e-05
101    4.88413693e-15
102    0.000450088664
103    2.54784958e-05
104    -8.4972502e-05
105    -6.2344558e-15
106    0.00248381351
107    0.000388183839
108    -8.54128751e-05
109    2.06931262e-14
110    -1.76249765e-06
111    -5.69495149e-17
112    -1.06698569e-06
113    -3.33713974e-16
114    9.99428875e-08
115    7.87252563e-09
116    1.20477501e-07
117    2.34479999e-07
118    3.05076787e-06