[Molden Format]
[Atoms] (Angs)
  C      1    6     -0.00714236     -1.70213747     -0.00000000
  H      2    1     -2.06882847     -1.44022412      0.00000000
  H      3    1     -0.12337987     -2.77567521      0.00000000
  H      4    1      0.04651892      1.98813947     -0.00000000
  C      5    6     -1.21953563      0.40211669      0.00000000
  O      6    8     -2.25921553      1.03043814      0.00000000
  C      7    6      1.28797806      0.34644937     -0.00000000
  O      8    8      2.31273661      1.00537216     -0.00000000
  N      9    7      0.03446295      0.97739857     -0.00000000
  N     10    7     -1.17287765     -0.98229824      0.00000000
  C     11    6      1.20107039     -1.10433419     -0.00000000
  H     12    1      2.11220096     -1.67699125     -0.00000000
[GTO]
1    0
S    1    1.000000
   4.56324000E+03    1.96665000E-03 
S    1    1.000000
   6.82024000E+02    1.52306000E-02 
S    1    1.000000
   1.54973000E+02    7.61269000E-02 
S    1    1.000000
   4.44553000E+01    2.60801000E-01 
S    1    1.000000
   1.30290000E+01    6.16462000E-01 
S    1    1.000000
   1.82773000E+00    2.21006000E-01 
SP   3    1.000000
   2.09642000E+01    1.14660000E-01   4.02487000E-02 
   4.80331000E+00    9.19999000E-01   2.37594000E-01 
   1.45933000E+00   -3.03068000E-03   8.15854000E-01 
SP   1    1.000000
   4.83456000E-01    1.00000000E+00   1.00000000E+00 
SP   1    1.000000
   1.45585000E-01    1.00000000E+00   1.00000000E+00 
SP   1    1.000000
   4.38000000E-02    1.00000000E+00   1.00000000E+00 
SP   1    1.000000
   1.31927711E-02    1.00000000E+00   1.00000000E+00 
D    1    1.000000
   6.26000000E-01    1.00000000E+00 

2    0
S    3    1.000000
   3.38650000E+01    2.54938000E-02 
   5.09479000E+00    1.90373000E-01 
   1.15879000E+00    8.52161000E-01 
S    1    1.000000
   3.25840000E-01    1.00000000E+00 
S    1    1.000000
   1.02741000E-01    1.00000000E+00 
S    1    1.000000
   3.60000000E-02    1.00000000E+00 
P    1    1.000000
   7.50000000E-01    1.00000000E+00 

3    0
S    3    1.000000
   3.38650000E+01    2.54938000E-02 
   5.09479000E+00    1.90373000E-01 
   1.15879000E+00    8.52161000E-01 
S    1    1.000000
   3.25840000E-01    1.00000000E+00 
S    1    1.000000
   1.02741000E-01    1.00000000E+00 
S    1    1.000000
   3.60000000E-02    1.00000000E+00 
P    1    1.000000
   7.50000000E-01    1.00000000E+00 

4    0
S    3    1.000000
   3.38650000E+01    2.54938000E-02 
   5.09479000E+00    1.90373000E-01 
   1.15879000E+00    8.52161000E-01 
S    1    1.000000
   3.25840000E-01    1.00000000E+00 
S    1    1.000000
   1.02741000E-01    1.00000000E+00 
S    1    1.000000
   3.60000000E-02    1.00000000E+00 
P    1    1.000000
   7.50000000E-01    1.00000000E+00 

5    0
S    1    1.000000
   4.56324000E+03    1.96665000E-03 
S    1    1.000000
   6.82024000E+02    1.52306000E-02 
S    1    1.000000
   1.54973000E+02    7.61269000E-02 
S    1    1.000000
   4.44553000E+01    2.60801000E-01 
S    1    1.000000
   1.30290000E+01    6.16462000E-01 
S    1    1.000000
   1.82773000E+00    2.21006000E-01 
SP   3    1.000000
   2.09642000E+01    1.14660000E-01   4.02487000E-02 
   4.80331000E+00    9.19999000E-01   2.37594000E-01 
   1.45933000E+00   -3.03068000E-03   8.15854000E-01 
SP   1    1.000000
   4.83456000E-01    1.00000000E+00   1.00000000E+00 
SP   1    1.000000
   1.45585000E-01    1.00000000E+00   1.00000000E+00 
SP   1    1.000000
   4.38000000E-02    1.00000000E+00   1.00000000E+00 
SP   1    1.000000
   1.31927711E-02    1.00000000E+00   1.00000000E+00 
D    1    1.000000
   6.26000000E-01    1.00000000E+00 

6    0
S    1    1.000000
   8.58850000E+03    1.89515000E-03 
S    1    1.000000
   1.29723000E+03    1.43859000E-02 
S    1    1.000000
   2.99296000E+02    7.07320000E-02 
S    1    1.000000
   8.73771000E+01    2.40001000E-01 
S    1    1.000000
   2.56789000E+01    5.94797000E-01 
S    1    1.000000
   3.74004000E+00    2.80802000E-01 
SP   3    1.000000
   4.21175000E+01    1.13889000E-01   3.65114000E-02 
   9.62837000E+00    9.20811000E-01   2.37153000E-01 
   2.85332000E+00   -3.27447000E-03   8.19702000E-01 
SP   1    1.000000
   9.05661000E-01    1.00000000E+00   1.00000000E+00 
SP   1    1.000000
   2.55611000E-01    1.00000000E+00   1.00000000E+00 
SP   1    1.000000
   8.45000000E-02    1.00000000E+00   1.00000000E+00 
SP   1    1.000000
   2.54518072E-02    1.00000000E+00   1.00000000E+00 
D    1    1.000000
   1.29200000E+00    1.00000000E+00 

7    0
S    1    1.000000
   4.56324000E+03    1.96665000E-03 
S    1    1.000000
   6.82024000E+02    1.52306000E-02 
S    1    1.000000
   1.54973000E+02    7.61269000E-02 
S    1    1.000000
   4.44553000E+01    2.60801000E-01 
S    1    1.000000
   1.30290000E+01    6.16462000E-01 
S    1    1.000000
   1.82773000E+00    2.21006000E-01 
SP   3    1.000000
   2.09642000E+01    1.14660000E-01   4.02487000E-02 
   4.80331000E+00    9.19999000E-01   2.37594000E-01 
   1.45933000E+00   -3.03068000E-03   8.15854000E-01 
SP   1    1.000000
   4.83456000E-01    1.00000000E+00   1.00000000E+00 
SP   1    1.000000
   1.45585000E-01    1.00000000E+00   1.00000000E+00 
SP   1    1.000000
   4.38000000E-02    1.00000000E+00   1.00000000E+00 
SP   1    1.000000
   1.31927711E-02    1.00000000E+00   1.00000000E+00 
D    1    1.000000
   6.26000000E-01    1.00000000E+00 

8    0
S    1    1.000000
   8.58850000E+03    1.89515000E-03 
S    1    1.000000
   1.29723000E+03    1.43859000E-02 
S    1    1.000000
   2.99296000E+02    7.07320000E-02 
S    1    1.000000
   8.73771000E+01    2.40001000E-01 
S    1    1.000000
   2.56789000E+01    5.94797000E-01 
S    1    1.000000
   3.74004000E+00    2.80802000E-01 
SP   3    1.000000
   4.21175000E+01    1.13889000E-01   3.65114000E-02 
   9.62837000E+00    9.20811000E-01   2.37153000E-01 
   2.85332000E+00   -3.27447000E-03   8.19702000E-01 
SP   1    1.000000
   9.05661000E-01    1.00000000E+00   1.00000000E+00 
SP   1    1.000000
   2.55611000E-01    1.00000000E+00   1.00000000E+00 
SP   1    1.000000
   8.45000000E-02    1.00000000E+00   1.00000000E+00 
SP   1    1.000000
   2.54518072E-02    1.00000000E+00   1.00000000E+00 
D    1    1.000000
   1.29200000E+00    1.00000000E+00 

9    0
S    1    1.000000
   6.29348000E+03    1.96979000E-03 
S    1    1.000000
   9.49044000E+02    1.49613000E-02 
S    1    1.000000
   2.18776000E+02    7.35006000E-02 
S    1    1.000000
   6.36916000E+01    2.48937000E-01 
S    1    1.000000
   1.88282000E+01    6.02460000E-01 
S    1    1.000000
   2.72023000E+00    2.56202000E-01 
SP   3    1.000000
   3.06331000E+01    1.11906000E-01   3.83119000E-02 
   7.02614000E+00    9.21666000E-01   2.37403000E-01 
   2.11205000E+00   -2.56919000E-03   8.17592000E-01 
SP   1    1.000000
   6.84009000E-01    1.00000000E+00   1.00000000E+00 
SP   1    1.000000
   2.00878000E-01    1.00000000E+00   1.00000000E+00 
SP   1    1.000000
   6.39000000E-02    1.00000000E+00   1.00000000E+00 
SP   1    1.000000
   1.92469880E-02    1.00000000E+00   1.00000000E+00 
D    1    1.000000
   9.13000000E-01    1.00000000E+00 

10    0
S    1    1.000000
   6.29348000E+03    1.96979000E-03 
S    1    1.000000
   9.49044000E+02    1.49613000E-02 
S    1    1.000000
   2.18776000E+02    7.35006000E-02 
S    1    1.000000
   6.36916000E+01    2.48937000E-01 
S    1    1.000000
   1.88282000E+01    6.02460000E-01 
S    1    1.000000
   2.72023000E+00    2.56202000E-01 
SP   3    1.000000
   3.06331000E+01    1.11906000E-01   3.83119000E-02 
   7.02614000E+00    9.21666000E-01   2.37403000E-01 
   2.11205000E+00   -2.56919000E-03   8.17592000E-01 
SP   1    1.000000
   6.84009000E-01    1.00000000E+00   1.00000000E+00 
SP   1    1.000000
   2.00878000E-01    1.00000000E+00   1.00000000E+00 
SP   1    1.000000
   6.39000000E-02    1.00000000E+00   1.00000000E+00 
SP   1    1.000000
   1.92469880E-02    1.00000000E+00   1.00000000E+00 
D    1    1.000000
   9.13000000E-01    1.00000000E+00 

11    0
S    1    1.000000
   4.56324000E+03    1.96665000E-03 
S    1    1.000000
   6.82024000E+02    1.52306000E-02 
S    1    1.000000
   1.54973000E+02    7.61269000E-02 
S    1    1.000000
   4.44553000E+01    2.60801000E-01 
S    1    1.000000
   1.30290000E+01    6.16462000E-01 
S    1    1.000000
   1.82773000E+00    2.21006000E-01 
SP   3    1.000000
   2.09642000E+01    1.14660000E-01   4.02487000E-02 
   4.80331000E+00    9.19999000E-01   2.37594000E-01 
   1.45933000E+00   -3.03068000E-03   8.15854000E-01 
SP   1    1.000000
   4.83456000E-01    1.00000000E+00   1.00000000E+00 
SP   1    1.000000
   1.45585000E-01    1.00000000E+00   1.00000000E+00 
SP   1    1.000000
   4.38000000E-02    1.00000000E+00   1.00000000E+00 
SP   1    1.000000
   1.31927711E-02    1.00000000E+00   1.00000000E+00 
D    1    1.000000
   6.26000000E-01    1.00000000E+00 

12    0
S    3    1.000000
   3.38650000E+01    2.54938000E-02 
   5.09479000E+00    1.90373000E-01 
   1.15879000E+00    8.52161000E-01 
S    1    1.000000
   3.25840000E-01    1.00000000E+00 
S    1    1.000000
   1.02741000E-01    1.00000000E+00 
S    1    1.000000
   3.60000000E-02    1.00000000E+00 
P    1    1.000000
   7.50000000E-01    1.00000000E+00 

[MO]
Sym=X
Ene=0.023095
Spin=Alpha
Occup=1
1    8.1122921e-10
2    -1.71382681e-09
3    5.00553801e-08
4    -5.89569003e-08
5    1.66681926e-06
6    6.64615611e-06
7    -3.32871138e-06
8    -1.62126125e-06
9    6.17168184e-07
10    -7.76249281e-16
11    -1.94318727e-05
12    1.66812639e-05
13    -5.42155209e-06
14    -2.53468696e-15
15    0.000149393049
16    2.65860682e-05
17    0.00014843083
18    5.98504565e-16
19    0.00288153787
20    -5.4466558e-06
21    0.00121467671
22    -4.83646913e-14
23    0.000315156812
24    0.000236529685
25    -0.000201666121
26    -9.34736963e-15
27    7.61442117e-06
28    1.04502084e-16
29    -2.7145784e-06
30    4.37255594e-16
31    4.78105387e-06
32    -6.87847334e-06
33    1.15147233e-05
34    2.5092854e-05
35    -9.53630494e-05
36    -3.3642056e-06
37    8.15636839e-06
38    -1.05969728e-15
39    -1.26421728e-06
40    1.95976874e-05
41    0.000111629045
42    0.000764682956
43    1.12569071e-06
44    3.57492249e-06
45    -2.58233695e-16
46    -5.55003554e-06
47    -9.54611101e-07
48    9.75673025e-05
49    -0.000125550659
50    -8.5536579e-06
51    -4.54674171e-07
52    3.14291076e-16
53    8.93184448e-09
54    1.29004502e-07
55    2.76466541e-07
56    3.22629972e-06
57    7.1204937e-06
58    0.000120333924
59    1.44591136e-05
60    3.51000294e-05
61    -2.16319028e-05
62    -2.46132212e-15
63    -0.000446164742
64    0.000453438665
65    -0.00027276541
66    9.86775736e-16
67    0.000890615564
68    -0.000469362678
69    0.000285870518
70    -6.32342793e-15
71    0.00214872793
72    -0.0027047696
73    0.00173895662
74    -4.94764005e-14
75    -0.0013937526
76    -0.000107742138
77    -0.000232214125
78    -5.70333502e-15
79    0.000243925847
80    6.14612228e-16
81    8.00371062e-05
82    1.09921959e-15
83    -0.000127607075
84    -0.00104384943
85    -0.00794069111
86    -0.0389355525
87    -0.132509627
88    -0.327964768
89    -0.155520532
90    -0.471287972
91    -0.00159310101
92    0.000975078931
93    -9.91030905e-16
94    -0.00493927256
95    0.000742638765
96    -0.000452854907
97    -7.09855069e-16
98    0.00058606306
99    -0.000409157617
100    0.000250310149
101    -5.11326217e-15
102    -0.00323899295
103    -0.000235878923
104    0.000142291948
105    5.65093792e-15
106    -0.00755141791
107    -0.00139665721
108    0.000692651979
109    -4.64053989e-15
110    -8.60928711e-05
111    7.73377293e-16
112    7.52547985e-05
113    -1.85213538e-16
114    4.74858718e-05
115    8.0578378e-10
116    -1.99778425e-09
117    5.03756283e-08
118    -6.64330003e-08
119    1.6660715e-06
120    6.42427392e-06
121    -3.32417853e-06
122    -2.01972961e-06
123    -5.39786981e-07
124    1.89020835e-15
125    -1.63490623e-05
126    1.14295851e-05
127    -2.51051532e-06
128    -1.00661527e-15
129    -6.11878557e-05
130    -0.000237064681
131    -0.000157588316
132    9.57056688e-15
133    0.00186107794
134    -0.00112006321
135    -0.000399716854
136    -6.85995781e-14
137    0.000408346606
138    -0.000173966237
139    0.000253111826
140    -4.49878681e-14
141    -3.75108017e-06
142    9.11871329e-16
143    4.90259106e-07
144    1.14140935e-15
145    -5.52873291e-06
146    2.39472512e-07
147    1.81734846e-06
148    8.94225009e-06
149    3.03138376e-05
150    7.60894709e-05
151    3.93227955e-05
152    0.000105720623
153    -2.02804199e-06
154    -2.30641316e-08
155    7.19183843e-16
156    -1.03691406e-05
157    5.71425874e-06
158    3.80084457e-07
159    2.90588618e-15
160    9.24964179e-05
161    -5.61453022e-05
162    -2.41721482e-05
163    -1.1049579e-15
164    0.000456219397
165    -4.23173215e-05
166    -7.22064034e-05
167    9.35475188e-15
168    0.00238483478
169    -0.000383455796
170    -7.94783603e-05
171    1.52354505e-14
172    1.59035133e-06
173    1.66501836e-16
174    -1.29226418e-06
175    5.21203567e-17
176    4.34178415e-07
177    1.3133055e-09
178    -2.50705557e-08
179    1.26533973e-07
180    -5.51527257e-07
181    6.80463984e-06
182    2.76141052e-05
183    -1.88673524e-05
184    -1.67401201e-05
185    1.49315592e-06
186    -1.76881016e-15
187    -3.91894517e-05
188    5.50652192e-05
189    5.54448547e-07
190    5.76603322e-15
191    -2.09097572e-05
192    -1.33803857e-05
193    1.89714974e-05
194    -1.40712362e-14
195    -0.000191359618
196    3.86420084e-05
197    -0.000213108952
198    4.14460966e-14
199    0.00142349495
200    -0.00233600188
201    7.26761242e-05
202    4.41539652e-14
203    -3.90370284e-06
204    3.69909073e-16
205    4.5019989e-06
206    1.22067869e-15
207    -3.15214695e-05
208    1.31334169e-09
209    -2.76133888e-08
210    1.32261078e-07
211    -6.03472022e-07
212    7.26489092e-06
213    2.95947284e-05
214    -2.0218942e-05
215    -8.70030716e-06
216    1.47645875e-05
217    -3.01551008e-15
218    -4.4333456e-05
219    2.37703273e-05
220    -5.12894539e-05
221    1.79626145e-15
222    8.04363333e-06
223    -7.63488511e-06
224    1.9334524e-05
225    -1.58920927e-14
226    -0.000193648805
227    5.91591025e-05
228    1.38554452e-05
229    3.69038543e-14
230    0.00192129425
231    -0.000379401891
232    0.000770542161
233    1.41766913e-14
234    2.04183916e-05
235    -2.09210137e-16
236    4.10665437e-06
237    -2.53767782e-17
238    2.38387078e-05
239    -3.4933709e-11
240    -2.73413463e-10
241    -1.39569881e-09
242    -1.6724057e-09
243    6.62046747e-08
244    1.07850943e-06
245    -2.89764567e-07
246    -1.28804724e-06
247    4.74957215e-08
248    -4.49135816e-16
249    6.41001722e-08
250    1.35119531e-05
251    -1.03785367e-06
252    -5.43654084e-16
253    -0.000236666213
254    0.000144705699
255    -7.93393346e-05
256    -5.2725127e-15
257    -0.00307545943
258    0.000723883452
259    -0.000413198586
260    5.28292062e-14
261    0.000115369686
262    0.000110751649
263    0.000282375622
264    2.88826253e-14
265    -5.76879235e-06
266    3.09145587e-16
267    -1.28830204e-06
268    6.45444355e-16
269    -3.14625247e-07
270    -5.92728573e-07
271    -2.44015758e-05
272    -5.53514244e-05
273    -7.00686394e-05
274    3.6229711e-06
275    -2.5151609e-06
276    1.18795987e-16
[5D]