[Molden Format]
[Atoms] (Angs)
  C      1    6     -0.00714236     -1.70213747     -0.00000000
  H      2    1     -2.06882847     -1.44022412      0.00000000
  H      3    1     -0.12337987     -2.77567521      0.00000000
  H      4    1      0.04651892      1.98813947     -0.00000000
  C      5    6     -1.21953563      0.40211669      0.00000000
  O      6    8     -2.25921553      1.03043814      0.00000000
  C      7    6      1.28797806      0.34644937     -0.00000000
  O      8    8      2.31273661      1.00537216     -0.00000000
  N      9    7      0.03446295      0.97739857     -0.00000000
  N     10    7     -1.17287765     -0.98229824      0.00000000
  C     11    6      1.20107039     -1.10433419     -0.00000000
  H     12    1      2.11220096     -1.67699125     -0.00000000
[GTO]
1    0
S    1    1.000000
   4.56324000E+03    1.96665000E-03 
S    1    1.000000
   6.82024000E+02    1.52306000E-02 
S    1    1.000000
   1.54973000E+02    7.61269000E-02 
S    1    1.000000
   4.44553000E+01    2.60801000E-01 
S    1    1.000000
   1.30290000E+01    6.16462000E-01 
S    1    1.000000
   1.82773000E+00    2.21006000E-01 
SP   3    1.000000
   2.09642000E+01    1.14660000E-01   4.02487000E-02 
   4.80331000E+00    9.19999000E-01   2.37594000E-01 
   1.45933000E+00   -3.03068000E-03   8.15854000E-01 
SP   1    1.000000
   4.83456000E-01    1.00000000E+00   1.00000000E+00 
SP   1    1.000000
   1.45585000E-01    1.00000000E+00   1.00000000E+00 
SP   1    1.000000
   4.38000000E-02    1.00000000E+00   1.00000000E+00 
SP   1    1.000000
   1.31927711E-02    1.00000000E+00   1.00000000E+00 
D    1    1.000000
   6.26000000E-01    1.00000000E+00 

2    0
S    3    1.000000
   3.38650000E+01    2.54938000E-02 
   5.09479000E+00    1.90373000E-01 
   1.15879000E+00    8.52161000E-01 
S    1    1.000000
   3.25840000E-01    1.00000000E+00 
S    1    1.000000
   1.02741000E-01    1.00000000E+00 
S    1    1.000000
   3.60000000E-02    1.00000000E+00 
P    1    1.000000
   7.50000000E-01    1.00000000E+00 

3    0
S    3    1.000000
   3.38650000E+01    2.54938000E-02 
   5.09479000E+00    1.90373000E-01 
   1.15879000E+00    8.52161000E-01 
S    1    1.000000
   3.25840000E-01    1.00000000E+00 
S    1    1.000000
   1.02741000E-01    1.00000000E+00 
S    1    1.000000
   3.60000000E-02    1.00000000E+00 
P    1    1.000000
   7.50000000E-01    1.00000000E+00 

4    0
S    3    1.000000
   3.38650000E+01    2.54938000E-02 
   5.09479000E+00    1.90373000E-01 
   1.15879000E+00    8.52161000E-01 
S    1    1.000000
   3.25840000E-01    1.00000000E+00 
S    1    1.000000
   1.02741000E-01    1.00000000E+00 
S    1    1.000000
   3.60000000E-02    1.00000000E+00 
P    1    1.000000
   7.50000000E-01    1.00000000E+00 

5    0
S    1    1.000000
   4.56324000E+03    1.96665000E-03 
S    1    1.000000
   6.82024000E+02    1.52306000E-02 
S    1    1.000000
   1.54973000E+02    7.61269000E-02 
S    1    1.000000
   4.44553000E+01    2.60801000E-01 
S    1    1.000000
   1.30290000E+01    6.16462000E-01 
S    1    1.000000
   1.82773000E+00    2.21006000E-01 
SP   3    1.000000
   2.09642000E+01    1.14660000E-01   4.02487000E-02 
   4.80331000E+00    9.19999000E-01   2.37594000E-01 
   1.45933000E+00   -3.03068000E-03   8.15854000E-01 
SP   1    1.000000
   4.83456000E-01    1.00000000E+00   1.00000000E+00 
SP   1    1.000000
   1.45585000E-01    1.00000000E+00   1.00000000E+00 
SP   1    1.000000
   4.38000000E-02    1.00000000E+00   1.00000000E+00 
SP   1    1.000000
   1.31927711E-02    1.00000000E+00   1.00000000E+00 
D    1    1.000000
   6.26000000E-01    1.00000000E+00 

6    0
S    1    1.000000
   8.58850000E+03    1.89515000E-03 
S    1    1.000000
   1.29723000E+03    1.43859000E-02 
S    1    1.000000
   2.99296000E+02    7.07320000E-02 
S    1    1.000000
   8.73771000E+01    2.40001000E-01 
S    1    1.000000
   2.56789000E+01    5.94797000E-01 
S    1    1.000000
   3.74004000E+00    2.80802000E-01 
SP   3    1.000000
   4.21175000E+01    1.13889000E-01   3.65114000E-02 
   9.62837000E+00    9.20811000E-01   2.37153000E-01 
   2.85332000E+00   -3.27447000E-03   8.19702000E-01 
SP   1    1.000000
   9.05661000E-01    1.00000000E+00   1.00000000E+00 
SP   1    1.000000
   2.55611000E-01    1.00000000E+00   1.00000000E+00 
SP   1    1.000000
   8.45000000E-02    1.00000000E+00   1.00000000E+00 
SP   1    1.000000
   2.54518072E-02    1.00000000E+00   1.00000000E+00 
D    1    1.000000
   1.29200000E+00    1.00000000E+00 

7    0
S    1    1.000000
   4.56324000E+03    1.96665000E-03 
S    1    1.000000
   6.82024000E+02    1.52306000E-02 
S    1    1.000000
   1.54973000E+02    7.61269000E-02 
S    1    1.000000
   4.44553000E+01    2.60801000E-01 
S    1    1.000000
   1.30290000E+01    6.16462000E-01 
S    1    1.000000
   1.82773000E+00    2.21006000E-01 
SP   3    1.000000
   2.09642000E+01    1.14660000E-01   4.02487000E-02 
   4.80331000E+00    9.19999000E-01   2.37594000E-01 
   1.45933000E+00   -3.03068000E-03   8.15854000E-01 
SP   1    1.000000
   4.83456000E-01    1.00000000E+00   1.00000000E+00 
SP   1    1.000000
   1.45585000E-01    1.00000000E+00   1.00000000E+00 
SP   1    1.000000
   4.38000000E-02    1.00000000E+00   1.00000000E+00 
SP   1    1.000000
   1.31927711E-02    1.00000000E+00   1.00000000E+00 
D    1    1.000000
   6.26000000E-01    1.00000000E+00 

8    0
S    1    1.000000
   8.58850000E+03    1.89515000E-03 
S    1    1.000000
   1.29723000E+03    1.43859000E-02 
S    1    1.000000
   2.99296000E+02    7.07320000E-02 
S    1    1.000000
   8.73771000E+01    2.40001000E-01 
S    1    1.000000
   2.56789000E+01    5.94797000E-01 
S    1    1.000000
   3.74004000E+00    2.80802000E-01 
SP   3    1.000000
   4.21175000E+01    1.13889000E-01   3.65114000E-02 
   9.62837000E+00    9.20811000E-01   2.37153000E-01 
   2.85332000E+00   -3.27447000E-03   8.19702000E-01 
SP   1    1.000000
   9.05661000E-01    1.00000000E+00   1.00000000E+00 
SP   1    1.000000
   2.55611000E-01    1.00000000E+00   1.00000000E+00 
SP   1    1.000000
   8.45000000E-02    1.00000000E+00   1.00000000E+00 
SP   1    1.000000
   2.54518072E-02    1.00000000E+00   1.00000000E+00 
D    1    1.000000
   1.29200000E+00    1.00000000E+00 

9    0
S    1    1.000000
   6.29348000E+03    1.96979000E-03 
S    1    1.000000
   9.49044000E+02    1.49613000E-02 
S    1    1.000000
   2.18776000E+02    7.35006000E-02 
S    1    1.000000
   6.36916000E+01    2.48937000E-01 
S    1    1.000000
   1.88282000E+01    6.02460000E-01 
S    1    1.000000
   2.72023000E+00    2.56202000E-01 
SP   3    1.000000
   3.06331000E+01    1.11906000E-01   3.83119000E-02 
   7.02614000E+00    9.21666000E-01   2.37403000E-01 
   2.11205000E+00   -2.56919000E-03   8.17592000E-01 
SP   1    1.000000
   6.84009000E-01    1.00000000E+00   1.00000000E+00 
SP   1    1.000000
   2.00878000E-01    1.00000000E+00   1.00000000E+00 
SP   1    1.000000
   6.39000000E-02    1.00000000E+00   1.00000000E+00 
SP   1    1.000000
   1.92469880E-02    1.00000000E+00   1.00000000E+00 
D    1    1.000000
   9.13000000E-01    1.00000000E+00 

10    0
S    1    1.000000
   6.29348000E+03    1.96979000E-03 
S    1    1.000000
   9.49044000E+02    1.49613000E-02 
S    1    1.000000
   2.18776000E+02    7.35006000E-02 
S    1    1.000000
   6.36916000E+01    2.48937000E-01 
S    1    1.000000
   1.88282000E+01    6.02460000E-01 
S    1    1.000000
   2.72023000E+00    2.56202000E-01 
SP   3    1.000000
   3.06331000E+01    1.11906000E-01   3.83119000E-02 
   7.02614000E+00    9.21666000E-01   2.37403000E-01 
   2.11205000E+00   -2.56919000E-03   8.17592000E-01 
SP   1    1.000000
   6.84009000E-01    1.00000000E+00   1.00000000E+00 
SP   1    1.000000
   2.00878000E-01    1.00000000E+00   1.00000000E+00 
SP   1    1.000000
   6.39000000E-02    1.00000000E+00   1.00000000E+00 
SP   1    1.000000
   1.92469880E-02    1.00000000E+00   1.00000000E+00 
D    1    1.000000
   9.13000000E-01    1.00000000E+00 

11    0
S    1    1.000000
   4.56324000E+03    1.96665000E-03 
S    1    1.000000
   6.82024000E+02    1.52306000E-02 
S    1    1.000000
   1.54973000E+02    7.61269000E-02 
S    1    1.000000
   4.44553000E+01    2.60801000E-01 
S    1    1.000000
   1.30290000E+01    6.16462000E-01 
S    1    1.000000
   1.82773000E+00    2.21006000E-01 
SP   3    1.000000
   2.09642000E+01    1.14660000E-01   4.02487000E-02 
   4.80331000E+00    9.19999000E-01   2.37594000E-01 
   1.45933000E+00   -3.03068000E-03   8.15854000E-01 
SP   1    1.000000
   4.83456000E-01    1.00000000E+00   1.00000000E+00 
SP   1    1.000000
   1.45585000E-01    1.00000000E+00   1.00000000E+00 
SP   1    1.000000
   4.38000000E-02    1.00000000E+00   1.00000000E+00 
SP   1    1.000000
   1.31927711E-02    1.00000000E+00   1.00000000E+00 
D    1    1.000000
   6.26000000E-01    1.00000000E+00 

12    0
S    3    1.000000
   3.38650000E+01    2.54938000E-02 
   5.09479000E+00    1.90373000E-01 
   1.15879000E+00    8.52161000E-01 
S    1    1.000000
   3.25840000E-01    1.00000000E+00 
S    1    1.000000
   1.02741000E-01    1.00000000E+00 
S    1    1.000000
   3.60000000E-02    1.00000000E+00 
P    1    1.000000
   7.50000000E-01    1.00000000E+00 

[MO]
Sym=X
Ene=0.001631
Spin=Alpha
Occup=1
1    7.52954873e-10
2    -1.31713009e-09
3    4.5857255e-08
4    -4.87337966e-08
5    1.5032531e-06
6    6.0070904e-06
7    -2.96161117e-06
8    -1.65373696e-06
9    5.33142139e-07
10    -7.78150875e-16
11    -1.77231173e-05
12    1.71405408e-05
13    -4.89433128e-06
14    -2.56183166e-15
15    0.000137881482
16    2.5551075e-05
17    0.000141505059
18    4.24681341e-16
19    0.00295041888
20    9.60493057e-06
21    0.00120606001
22    -4.6646571e-14
23    0.000337717259
24    0.000245831564
25    -0.000199905303
26    -1.30068338e-14
27    8.09295574e-06
28    1.03984922e-16
29    -2.59103882e-06
30    4.31848907e-16
31    4.50814704e-06
32    -6.86229016e-06
33    1.23641328e-05
34    2.48243372e-05
35    -9.11273213e-05
36    -3.33524034e-06
37    8.21655073e-06
38    -1.06703168e-15
39    -1.31452758e-06
40    1.93329466e-05
41    0.000106025816
42    0.00075399518
43    1.22919521e-06
44    3.46569717e-06
45    -2.52707848e-16
46    -5.30234168e-06
47    -9.55226251e-07
48    9.77659443e-05
49    -0.000121425393
50    -8.72392006e-06
51    -4.90032669e-07
52    3.12290149e-16
53    8.89529603e-09
54    1.28996772e-07
55    2.74368639e-07
56    3.22674566e-06
57    7.05223687e-06
58    0.000120011513
59    1.45782697e-05
60    3.50587377e-05
61    -2.15987452e-05
62    -2.43218723e-15
63    -0.000445181101
64    0.0004533457
65    -0.00027251992
66    8.89146622e-16
67    0.000888529332
68    -0.000478179575
69    0.000289493113
70    -6.1996476e-15
71    0.00211384214
72    -0.00274249619
73    0.00174221058
74    -4.88246846e-14
75    -0.00142949992
76    -0.000116048855
77    -0.000246999948
78    -3.9040178e-15
79    0.000243675321
80    6.31166108e-16
81    8.00408856e-05
82    1.11022886e-15
83    -0.000127360822
84    -0.00104323273
85    -0.00793599971
86    -0.0389125499
87    -0.132431339
88    -0.327771029
89    -0.155428737
90    -0.471009482
91    -0.00159222131
92    0.000974482768
93    -1.01181205e-15
94    -0.0049360615
95    0.000742399989
96    -0.000452545456
97    -6.59897637e-16
98    0.000583069989
99    -0.000410611223
100    0.000250823383
101    -5.2771179e-15
102    -0.00325252691
103    -0.000236615333
104    0.00014511248
105    5.86059048e-15
106    -0.00763194521
107    -0.00140911999
108    0.000695176182
109    -5.34439521e-15
110    -8.59839914e-05
111    7.74884063e-16
112    7.52486514e-05
113    -1.73715479e-16
114    4.74555948e-05
115    5.36553289e-10
116    -6.10985688e-09
117    4.23417849e-08
118    -1.70551189e-07
119    1.44860648e-06
120    2.56674246e-06
121    -3.82412529e-06
122    -9.18481548e-07
123    3.11464816e-07
124    1.87385106e-15
125    -2.13446695e-06
126    2.62225412e-05
127    7.294718e-06
128    -8.98318974e-16
129    -8.85942026e-05
130    -0.00024808943
131    -0.000164739726
132    9.42859477e-15
133    0.00184644341
134    -0.00122785964
135    -0.000456187233
136    -6.60670494e-14
137    0.000414590658
138    -0.000188881046
139    0.000278383312
140    -4.71499719e-14
141    4.74697437e-06
142    9.30933267e-16
143    -2.02485445e-06
144    1.15432345e-15
145    -1.68361037e-06
146    3.58775302e-05
147    0.000272920477
148    0.00133824068
149    0.00455431423
150    0.0112730536
151    0.00534820219
152    0.0161964695
153    -5.52079547e-05
154    -3.20330526e-05
155    7.55874692e-16
156    0.000158225995
157    3.04211373e-05
158    1.52058922e-05
159    2.88485437e-15
160    7.0622764e-05
161    -6.93894972e-05
162    -3.17914505e-05
163    -8.79881527e-16
164    0.000559061102
165    -4.74476887e-05
166    -7.71904658e-05
167    8.88732083e-15
168    0.00260293677
169    -0.000424043418
170    -9.22614551e-05
171    1.50834025e-14
172    -1.5426836e-06
173    1.68467831e-16
174    -4.95497961e-06
175    4.59486687e-17
176    -1.12002816e-06
177    1.28582744e-09
178    -2.42241344e-08
179    1.23202185e-07
180    -5.33390763e-07
181    6.60203615e-06
182    2.67780082e-05
183    -1.82774679e-05
184    -1.732348e-05
185    1.53690744e-06
186    -1.74168248e-15
187    -3.83441866e-05
188    5.69803794e-05
189    2.58232748e-07
190    5.7474976e-15
191    -1.66947066e-05
192    -1.50232962e-05
193    1.7003574e-05
194    -1.38324328e-14
195    -0.000196184247
196    3.52603168e-05
197    -0.000209661308
198    4.03904702e-14
199    0.00134838319
200    -0.00243129597
201    7.45412274e-05
202    4.31817465e-14
203    -4.32409706e-06
204    3.91210804e-16
205    4.28488809e-06
206    1.22872865e-15
207    -3.05323833e-05
208    1.30678375e-09
209    -2.74701467e-08
210    1.31570722e-07
211    -6.00352933e-07
212    7.22868604e-06
213    2.94514824e-05
214    -2.01263821e-05
215    -8.71271162e-06
216    1.47755881e-05
217    -3.00199968e-15
218    -4.42177077e-05
219    2.38957277e-05
220    -5.13484837e-05
221    1.67648424e-15
222    1.20634405e-05
223    -4.31789334e-06
224    2.04398125e-05
225    -1.56929096e-14
226    -0.000170728829
227    6.76652462e-05
228    1.49652473e-05
229    3.58073788e-14
230    0.00192101115
231    -0.000370429273
232    0.000765922167
233    1.45016324e-14
234    2.026919e-05
235    -2.06301697e-16
236    4.12066677e-06
237    -1.71615906e-17
238    2.37762171e-05
239    1.26914569e-11
240    3.62080395e-10
241    -4.93979893e-11
242    1.00358578e-08
243    2.03163328e-08
244    7.24996376e-07
245    -4.48172465e-08
246    -1.5572806e-06
247    -4.26675641e-07
248    -4.16115678e-16
249    3.26494168e-07
250    1.42301413e-05
251    1.37412197e-06
252    -6.78711028e-16
253    -0.000230429778
254    0.000140146329
255    -8.00292564e-05
256    -4.89730114e-15
257    -0.00319259583
258    0.000781616325
259    -0.000415467941
260    5.02116801e-14
261    0.000132278892
262    0.00012125652
263    0.0002881715
264    3.30314523e-14
265    -4.40923296e-06
266    3.15921511e-16
267    -1.28680874e-06
268    6.38328396e-16
269    -1.66874045e-06
270    -3.98037285e-07
271    -2.25591312e-05
272    -5.76771584e-05
273    -0.000102819709
274    3.11831355e-06
275    -2.30744252e-06
276    1.14021266e-16
[5D]