[Molden Format]
[Atoms] (Angs)
  C      1    6     -0.00714236     -1.70213747     -0.00000000
  H      2    1     -2.06882847     -1.44022412      0.00000000
  H      3    1     -0.12337987     -2.77567521      0.00000000
  H      4    1      0.04651892      1.98813947     -0.00000000
  C      5    6     -1.21953563      0.40211669      0.00000000
  O      6    8     -2.25921553      1.03043814      0.00000000
  C      7    6      1.28797806      0.34644937     -0.00000000
  O      8    8      2.31273661      1.00537216     -0.00000000
  N      9    7      0.03446295      0.97739857     -0.00000000
  N     10    7     -1.17287765     -0.98229824      0.00000000
  C     11    6      1.20107039     -1.10433419     -0.00000000
  H     12    1      2.11220096     -1.67699125     -0.00000000
[GTO]
1    0
S    1    1.000000
   4.56324000E+03    1.96665000E-03 
S    1    1.000000
   6.82024000E+02    1.52306000E-02 
S    1    1.000000
   1.54973000E+02    7.61269000E-02 
S    1    1.000000
   4.44553000E+01    2.60801000E-01 
S    1    1.000000
   1.30290000E+01    6.16462000E-01 
S    1    1.000000
   1.82773000E+00    2.21006000E-01 
SP   3    1.000000
   2.09642000E+01    1.14660000E-01   4.02487000E-02 
   4.80331000E+00    9.19999000E-01   2.37594000E-01 
   1.45933000E+00   -3.03068000E-03   8.15854000E-01 
SP   1    1.000000
   4.83456000E-01    1.00000000E+00   1.00000000E+00 
SP   1    1.000000
   1.45585000E-01    1.00000000E+00   1.00000000E+00 
SP   1    1.000000
   4.38000000E-02    1.00000000E+00   1.00000000E+00 
SP   1    1.000000
   1.31927711E-02    1.00000000E+00   1.00000000E+00 
D    1    1.000000
   6.26000000E-01    1.00000000E+00 

2    0
S    3    1.000000
   3.38650000E+01    2.54938000E-02 
   5.09479000E+00    1.90373000E-01 
   1.15879000E+00    8.52161000E-01 
S    1    1.000000
   3.25840000E-01    1.00000000E+00 
S    1    1.000000
   1.02741000E-01    1.00000000E+00 
S    1    1.000000
   3.60000000E-02    1.00000000E+00 
P    1    1.000000
   7.50000000E-01    1.00000000E+00 

3    0
S    3    1.000000
   3.38650000E+01    2.54938000E-02 
   5.09479000E+00    1.90373000E-01 
   1.15879000E+00    8.52161000E-01 
S    1    1.000000
   3.25840000E-01    1.00000000E+00 
S    1    1.000000
   1.02741000E-01    1.00000000E+00 
S    1    1.000000
   3.60000000E-02    1.00000000E+00 
P    1    1.000000
   7.50000000E-01    1.00000000E+00 

4    0
S    3    1.000000
   3.38650000E+01    2.54938000E-02 
   5.09479000E+00    1.90373000E-01 
   1.15879000E+00    8.52161000E-01 
S    1    1.000000
   3.25840000E-01    1.00000000E+00 
S    1    1.000000
   1.02741000E-01    1.00000000E+00 
S    1    1.000000
   3.60000000E-02    1.00000000E+00 
P    1    1.000000
   7.50000000E-01    1.00000000E+00 

5    0
S    1    1.000000
   4.56324000E+03    1.96665000E-03 
S    1    1.000000
   6.82024000E+02    1.52306000E-02 
S    1    1.000000
   1.54973000E+02    7.61269000E-02 
S    1    1.000000
   4.44553000E+01    2.60801000E-01 
S    1    1.000000
   1.30290000E+01    6.16462000E-01 
S    1    1.000000
   1.82773000E+00    2.21006000E-01 
SP   3    1.000000
   2.09642000E+01    1.14660000E-01   4.02487000E-02 
   4.80331000E+00    9.19999000E-01   2.37594000E-01 
   1.45933000E+00   -3.03068000E-03   8.15854000E-01 
SP   1    1.000000
   4.83456000E-01    1.00000000E+00   1.00000000E+00 
SP   1    1.000000
   1.45585000E-01    1.00000000E+00   1.00000000E+00 
SP   1    1.000000
   4.38000000E-02    1.00000000E+00   1.00000000E+00 
SP   1    1.000000
   1.31927711E-02    1.00000000E+00   1.00000000E+00 
D    1    1.000000
   6.26000000E-01    1.00000000E+00 

6    0
S    1    1.000000
   8.58850000E+03    1.89515000E-03 
S    1    1.000000
   1.29723000E+03    1.43859000E-02 
S    1    1.000000
   2.99296000E+02    7.07320000E-02 
S    1    1.000000
   8.73771000E+01    2.40001000E-01 
S    1    1.000000
   2.56789000E+01    5.94797000E-01 
S    1    1.000000
   3.74004000E+00    2.80802000E-01 
SP   3    1.000000
   4.21175000E+01    1.13889000E-01   3.65114000E-02 
   9.62837000E+00    9.20811000E-01   2.37153000E-01 
   2.85332000E+00   -3.27447000E-03   8.19702000E-01 
SP   1    1.000000
   9.05661000E-01    1.00000000E+00   1.00000000E+00 
SP   1    1.000000
   2.55611000E-01    1.00000000E+00   1.00000000E+00 
SP   1    1.000000
   8.45000000E-02    1.00000000E+00   1.00000000E+00 
SP   1    1.000000
   2.54518072E-02    1.00000000E+00   1.00000000E+00 
D    1    1.000000
   1.29200000E+00    1.00000000E+00 

7    0
S    1    1.000000
   4.56324000E+03    1.96665000E-03 
S    1    1.000000
   6.82024000E+02    1.52306000E-02 
S    1    1.000000
   1.54973000E+02    7.61269000E-02 
S    1    1.000000
   4.44553000E+01    2.60801000E-01 
S    1    1.000000
   1.30290000E+01    6.16462000E-01 
S    1    1.000000
   1.82773000E+00    2.21006000E-01 
SP   3    1.000000
   2.09642000E+01    1.14660000E-01   4.02487000E-02 
   4.80331000E+00    9.19999000E-01   2.37594000E-01 
   1.45933000E+00   -3.03068000E-03   8.15854000E-01 
SP   1    1.000000
   4.83456000E-01    1.00000000E+00   1.00000000E+00 
SP   1    1.000000
   1.45585000E-01    1.00000000E+00   1.00000000E+00 
SP   1    1.000000
   4.38000000E-02    1.00000000E+00   1.00000000E+00 
SP   1    1.000000
   1.31927711E-02    1.00000000E+00   1.00000000E+00 
D    1    1.000000
   6.26000000E-01    1.00000000E+00 

8    0
S    1    1.000000
   8.58850000E+03    1.89515000E-03 
S    1    1.000000
   1.29723000E+03    1.43859000E-02 
S    1    1.000000
   2.99296000E+02    7.07320000E-02 
S    1    1.000000
   8.73771000E+01    2.40001000E-01 
S    1    1.000000
   2.56789000E+01    5.94797000E-01 
S    1    1.000000
   3.74004000E+00    2.80802000E-01 
SP   3    1.000000
   4.21175000E+01    1.13889000E-01   3.65114000E-02 
   9.62837000E+00    9.20811000E-01   2.37153000E-01 
   2.85332000E+00   -3.27447000E-03   8.19702000E-01 
SP   1    1.000000
   9.05661000E-01    1.00000000E+00   1.00000000E+00 
SP   1    1.000000
   2.55611000E-01    1.00000000E+00   1.00000000E+00 
SP   1    1.000000
   8.45000000E-02    1.00000000E+00   1.00000000E+00 
SP   1    1.000000
   2.54518072E-02    1.00000000E+00   1.00000000E+00 
D    1    1.000000
   1.29200000E+00    1.00000000E+00 

9    0
S    1    1.000000
   6.29348000E+03    1.96979000E-03 
S    1    1.000000
   9.49044000E+02    1.49613000E-02 
S    1    1.000000
   2.18776000E+02    7.35006000E-02 
S    1    1.000000
   6.36916000E+01    2.48937000E-01 
S    1    1.000000
   1.88282000E+01    6.02460000E-01 
S    1    1.000000
   2.72023000E+00    2.56202000E-01 
SP   3    1.000000
   3.06331000E+01    1.11906000E-01   3.83119000E-02 
   7.02614000E+00    9.21666000E-01   2.37403000E-01 
   2.11205000E+00   -2.56919000E-03   8.17592000E-01 
SP   1    1.000000
   6.84009000E-01    1.00000000E+00   1.00000000E+00 
SP   1    1.000000
   2.00878000E-01    1.00000000E+00   1.00000000E+00 
SP   1    1.000000
   6.39000000E-02    1.00000000E+00   1.00000000E+00 
SP   1    1.000000
   1.92469880E-02    1.00000000E+00   1.00000000E+00 
D    1    1.000000
   9.13000000E-01    1.00000000E+00 

10    0
S    1    1.000000
   6.29348000E+03    1.96979000E-03 
S    1    1.000000
   9.49044000E+02    1.49613000E-02 
S    1    1.000000
   2.18776000E+02    7.35006000E-02 
S    1    1.000000
   6.36916000E+01    2.48937000E-01 
S    1    1.000000
   1.88282000E+01    6.02460000E-01 
S    1    1.000000
   2.72023000E+00    2.56202000E-01 
SP   3    1.000000
   3.06331000E+01    1.11906000E-01   3.83119000E-02 
   7.02614000E+00    9.21666000E-01   2.37403000E-01 
   2.11205000E+00   -2.56919000E-03   8.17592000E-01 
SP   1    1.000000
   6.84009000E-01    1.00000000E+00   1.00000000E+00 
SP   1    1.000000
   2.00878000E-01    1.00000000E+00   1.00000000E+00 
SP   1    1.000000
   6.39000000E-02    1.00000000E+00   1.00000000E+00 
SP   1    1.000000
   1.92469880E-02    1.00000000E+00   1.00000000E+00 
D    1    1.000000
   9.13000000E-01    1.00000000E+00 

11    0
S    1    1.000000
   4.56324000E+03    1.96665000E-03 
S    1    1.000000
   6.82024000E+02    1.52306000E-02 
S    1    1.000000
   1.54973000E+02    7.61269000E-02 
S    1    1.000000
   4.44553000E+01    2.60801000E-01 
S    1    1.000000
   1.30290000E+01    6.16462000E-01 
S    1    1.000000
   1.82773000E+00    2.21006000E-01 
SP   3    1.000000
   2.09642000E+01    1.14660000E-01   4.02487000E-02 
   4.80331000E+00    9.19999000E-01   2.37594000E-01 
   1.45933000E+00   -3.03068000E-03   8.15854000E-01 
SP   1    1.000000
   4.83456000E-01    1.00000000E+00   1.00000000E+00 
SP   1    1.000000
   1.45585000E-01    1.00000000E+00   1.00000000E+00 
SP   1    1.000000
   4.38000000E-02    1.00000000E+00   1.00000000E+00 
SP   1    1.000000
   1.31927711E-02    1.00000000E+00   1.00000000E+00 
D    1    1.000000
   6.26000000E-01    1.00000000E+00 

12    0
S    3    1.000000
   3.38650000E+01    2.54938000E-02 
   5.09479000E+00    1.90373000E-01 
   1.15879000E+00    8.52161000E-01 
S    1    1.000000
   3.25840000E-01    1.00000000E+00 
S    1    1.000000
   1.02741000E-01    1.00000000E+00 
S    1    1.000000
   3.60000000E-02    1.00000000E+00 
P    1    1.000000
   7.50000000E-01    1.00000000E+00 

[MO]
Sym=X
Ene=0.950956
Spin=Alpha
Occup=1
1    -1.69286683e-09
2    1.1589814e-08
3    -1.22100213e-07
4    2.98420702e-07
5    -4.76213014e-06
6    -1.86037015e-05
7    1.06950222e-05
8    -9.79235391e-07
9    -2.45049802e-06
10    -6.91082729e-17
11    4.97145087e-05
12    1.37405907e-05
13    1.53488707e-05
14    -8.38867177e-16
15    -0.000334598055
16    -2.98561274e-05
17    -0.000200294721
18    -5.08101915e-15
19    0.00206733391
20    0.000440773466
21    -0.000231403314
22    4.94889913e-14
23    0.000666249752
24    0.000276542195
25    4.80913473e-05
26    -1.07348784e-13
27    1.41480267e-05
28    -1.33426328e-17
29    3.57163396e-06
30    -1.50810602e-16
31    -7.91096748e-06
32    3.55186268e-07
33    2.50784941e-05
34    -7.43149481e-06
35    0.000122418929
36    7.90288476e-07
37    1.90366913e-06
38    -2.33134142e-16
39    -1.49545009e-06
40    -7.41582455e-06
41    -0.000162192621
42    -0.000299839699
43    3.05113852e-06
44    -3.13750041e-06
45    1.57393453e-16
46    7.15918426e-06
47    -3.45089825e-08
48    7.50378695e-06
49    0.000118661953
50    -5.13481809e-06
51    -1.04352042e-06
52    -5.31786218e-17
53    -9.16221973e-10
54    2.00214458e-09
55    -5.66724882e-08
56    6.87962479e-08
57    -1.8762654e-06
58    -7.36478739e-06
59    3.73991556e-06
60    -6.03097449e-07
61    5.97507692e-07
62    8.10854084e-16
63    2.11037545e-05
64    5.11021596e-06
65    2.47846872e-06
66    -2.8425529e-15
67    -4.57211893e-05
68    -0.000266359038
69    0.000111045848
70    3.51634245e-15
71    -0.00098470066
72    -0.0011517536
73    0.000125350558
74    1.82343359e-14
75    -0.00107113197
76    -0.00024516865
77    -0.000437094749
78    5.26042638e-14
79    -3.12418608e-06
80    4.95487866e-16
81    1.49334851e-06
82    3.41455518e-16
83    5.00845238e-06
84    3.07969357e-08
85    2.3722019e-07
86    1.14203061e-06
87    3.96724543e-06
88    9.09623366e-06
89    2.06897003e-06
90    1.55569914e-05
91    -1.75437245e-06
92    -6.17297858e-07
93    -6.25808998e-16
94    8.72700621e-06
95    5.83529209e-06
96    1.24085955e-06
97    1.45101226e-15
98    -7.75440661e-05
99    -4.96449762e-05
100    1.93569803e-05
101    -4.88773814e-15
102    -0.000452369568
103    -2.56446013e-05
104    8.50727112e-05
105    6.23843578e-15
106    -0.00248913139
107    -0.000389167388
108    8.59006406e-05
109    -2.06963962e-14
110    1.70187238e-06
111    5.7494123e-17
112    1.11997923e-06
113    3.33583585e-16
114    -6.65039786e-08
115    -7.87195905e-09
116    -1.2047892e-07
117    -2.34444551e-07
118    -3.05081498e-06
119    -6.34086422e-06
120    -0.000112877807
121    -1.47010851e-05
122    3.22211472e-05
123    2.49242132e-05
124    -4.46458625e-16
125    0.000416069293
126    0.000433489611
127    0.00028715621
128    3.15465667e-15
129    -0.000803800929
130    -0.000327015014
131    -0.000212190273
132    -3.99309292e-15
133    -0.000396501531
134    -0.00317675363
135    -0.00166094727
136    7.29938124e-14
137    0.000189945254
138    -0.000439866595
139    0.000744585415
140    -6.4106137e-14
141    0.00024884694
142    5.7408518e-16
143    -7.36603084e-05
144    3.9797763e-16
145    0.000112529814
146    0.00104385846
147    0.00794076078
148    0.0389358877
149    0.132510477
150    0.327965298
151    0.155500082
152    0.471306909
153    -0.00155769797
154    -0.000937586981
155    1.08711498e-15
156    0.00493804625
157    0.000723774011
158    0.00043426097
159    -5.65831767e-16
160    -0.00063909102
161    -0.000388898186
162    -0.000223590277
163    6.57349738e-15
164    0.0030201598
165    -0.00015100174
166    -0.000147232741
167    -1.3529656e-14
168    0.00642950111
169    -0.00119545345
170    -0.00037579544
171    -4.19036086e-15
172    -9.17404921e-05
173    6.04611966e-17
174    -0.000107304863
175    -1.79871062e-16
176    -4.5515891e-05
177    -7.82156955e-10
178    2.43589548e-08
179    -9.54036368e-08
180    5.21698177e-07
181    -5.81680025e-06
182    -2.4012611e-05
183    1.69520392e-05
184    -1.73760544e-05
185    1.3072953e-06
186    7.64025333e-16
187    2.40811853e-05
188    5.70471365e-05
189    -8.66671237e-06
190    -4.4330784e-16
191    0.000123099461
192    -4.83527152e-05
193    -5.73136041e-05
194    6.75157579e-15
195    -0.000144621246
196    -9.83836831e-05
197    9.73015125e-05
198    -3.02037756e-14
199    -0.00217546526
200    -0.00283156042
201    5.5885173e-05
202    -2.77139486e-14
203    -1.23809677e-05
204    6.30327233e-16
205    -6.28149833e-06
206    2.56874181e-16
207    2.84262325e-05
208    -1.69396664e-10
209    3.71859992e-09
210    -1.79360301e-08
211    8.09344799e-08
212    -9.34955301e-07
213    -3.68448785e-06
214    2.36183659e-06
215    -5.13630504e-07
216    5.77271122e-07
217    3.43632371e-16
218    2.62445441e-06
219    4.08366697e-06
220    -2.61503928e-06
221    -3.47729656e-15
222    0.000117880866
223    9.70242488e-05
224    3.27083894e-05
225    5.55962186e-15
226    0.000667990861
227    0.000250170653
228    3.27459435e-05
229    -3.14787331e-14
230    2.48983627e-05
231    0.000256257718
232    -0.000122010487
233    9.76257094e-15
234    -4.01745117e-06
235    8.15753652e-17
236    4.81372141e-07
237    2.40188058e-16
238    -1.4185634e-06
239    1.39435849e-09
240    1.86091702e-08
241    3.94096301e-08
242    3.42911277e-07
243    -1.34294595e-06
244    -1.03359209e-05
245    7.16960861e-06
246    -7.90821438e-06
247    -1.38878664e-05
248    9.59415448e-16
249    7.68674242e-06
250    2.12694683e-05
251    7.06298941e-05
252    -3.96526872e-15
253    0.000178579488
254    -0.000131046155
255    -2.15787053e-05
256    1.0899028e-14
257    -0.00348410536
258    0.00170352629
259    -7.36084592e-05
260    -7.57558591e-14
261    0.000497271068
262    0.000309605491
263    0.000174641888
264    1.22019911e-13
265    3.97224336e-05
266    2.03810298e-16
267    2.14838261e-08
268    -1.97279466e-16
269    -3.96680627e-05
270    5.69235368e-06
271    5.3544469e-05
272    -6.9077968e-05
273    -0.000960503619
274    -1.47190536e-05
275    6.0407127e-06
276    -1.37801444e-16
Sym=X
Ene=0.952172
Spin=Alpha
Occup=1
1    8.1156956e-10
2    -1.71615685e-09
3    5.00799281e-08
4    -5.90168958e-08
5    1.66777667e-06
6    6.64989632e-06
7    -3.33086157e-06
8    -1.62106441e-06
9    6.17660843e-07
10    -7.76235403e-16
11    -1.94418677e-05
12    1.66785019e-05
13    -5.42463792e-06
14    -2.53451836e-15
15    0.00014946032
16    2.6592071e-05
17    0.0001484711
18    5.99526062e-16
19    0.00288112231
20    -5.53526879e-06
21    0.00121472325
22    -4.83746415e-14
23    0.000315022875
24    0.000236474094
25    -0.000201675793
26    -9.32578847e-15
27    7.61157701e-06
28    1.04504769e-16
29    -2.7152965e-06
30    4.37285922e-16
31    4.78264438e-06
32    -6.87854488e-06
33    1.15096818e-05
34    2.50943486e-05
35    -9.53876623e-05
36    -3.36436455e-06
37    8.15598584e-06
38    -1.05965043e-15
39    -1.26391667e-06
40    1.95991787e-05
41    0.000111661654
42    0.000764743251
43    1.12507734e-06
44    3.57555333e-06
45    -2.58265342e-16
46    -5.55147493e-06
47    -9.54604182e-07
48    9.75657959e-05
49    -0.000125574518
50    -8.55262577e-06
51    -4.54464391e-07
52    3.14301773e-16
53    8.93202886e-09
54    1.29004102e-07
55    2.7647794e-07
56    3.22628596e-06
57    7.12087104e-06
58    0.000120335407
59    1.4458362e-05
60    3.51001514e-05
61    -2.16320234e-05
62    -2.46148518e-15
63    -0.000446168994
64    0.000453437646
65    -0.000272765914
66    9.87347221e-16
67    0.000890624773
68    -0.000469309139
69    0.000285848199
70    -6.32413498e-15
71    0.00214892594
72    -0.0027045381
73    0.00173893145
74    -4.94800673e-14
75    -0.00139353729
76    -0.000107692851
77    -0.000232126257
78    -5.71391066e-15
79    0.00024392648
80    6.14512628e-16
81    8.00368075e-05
82    1.09915097e-15
83    -0.000127608085
84    -0.00104384945
85    -0.00794069132
86    -0.0389355535
87    -0.13250963
88    -0.327964777
89    -0.155520535
90    -0.471287984
91    -0.00159310069
92    0.000975079074
93    -9.90905112e-16
94    -0.00493927441
95    0.000742637606
96    -0.000452855165
97    -7.10146794e-16
98    0.000586078661
99    -0.000409147644
100    0.000250306262
101    -5.11227964e-15
102    -0.00323890207
103    -0.000235873772
104    0.000142274848
105    5.64968386e-15
106    -0.00755091764
107    -0.001396579
108    0.000692634723
109    -4.63637919e-15
110    -8.60932149e-05
111    7.73365749e-16
112    7.52545749e-05
113    -1.85280605e-16
114    4.74858861e-05
115    8.07366371e-10
116    -1.97356327e-09
117    5.04227619e-08
118    -6.58196673e-08
119    1.66734629e-06
120    6.44696695e-06
121    -3.32122309e-06
122    -2.02620737e-06
123    -5.44797744e-07
124    1.89029814e-15
125    -1.6432709e-05
126    1.13424368e-05
127    -2.56824511e-06
128    -1.0072495e-15
129    -6.10262612e-05
130    -0.000236998943
131    -0.00015754566
132    9.57136984e-15
133    0.00186115769
134    -0.00111942458
135    -0.000399382945
136    -6.86142541e-14
137    0.000408308427
138    -0.000173877809
139    0.00025296214
140    -4.49749811e-14
141    -3.80110831e-06
142    9.11755933e-16
143    5.05067748e-07
144    1.14132936e-15
145    -5.55135596e-06
146    2.96157293e-08
147    2.20941873e-07
148    1.11459867e-06
149    3.67399747e-06
150    1.01554911e-05
151    8.06113672e-06
152    1.09693175e-05
153    -1.7148832e-06
154    1.65427891e-07
155    7.18965304e-16
156    -1.13618831e-05
157    5.56875168e-06
158    2.92780854e-07
159    2.906e-15
160    9.26249022e-05
161    -5.60671194e-05
162    -2.41271982e-05
163    -1.10627946e-15
164    0.000455612235
165    -4.2286965e-05
166    -7.21768053e-05
167    9.35747206e-15
168    0.00238354224
169    -0.000383215471
170    -7.94028122e-05
171    1.52362933e-14
172    1.60879482e-06
173    1.66489684e-16
174    -1.27069168e-06
175    5.21565189e-17
176    4.43328916e-07
177    1.31346277e-09
178    -2.50754533e-08
179    1.26553155e-07
180    -5.5163215e-07
181    6.80580938e-06
182    2.76189332e-05
183    -1.88707608e-05
184    -1.67366271e-05
185    1.49289314e-06
186    -1.76896379e-15
187    -3.91942938e-05
188    5.50537516e-05
189    5.56190909e-07
190    5.76612246e-15
191    -2.09345055e-05
192    -1.33706652e-05
193    1.898302e-05
194    -1.40725938e-14
195    -0.000191330547
196    3.86617881e-05
197    -0.000213128518
198    4.14521696e-14
199    0.00142393233
200    -0.00233543267
201    7.26648905e-05
202    4.41595377e-14
203    -3.90121385e-06
204    3.6978236e-16
205    4.50326182e-06
206    1.22062708e-15
207    -3.15271849e-05
208    1.31337577e-09
209    -2.76141369e-08
210    1.32264687e-07
211    -6.03488305e-07
212    7.26507903e-06
213    2.95954697e-05
214    -2.02194173e-05
215    -8.70020407e-06
216    1.47644717e-05
217    -3.01557922e-15
218    -4.43339845e-05
219    2.37695067e-05
220    -5.12889292e-05
221    1.79696056e-15
222    8.01993478e-06
223    -7.65439097e-06
224    1.93279487e-05
225    -1.58932107e-14
226    -0.000193783102
227    5.91088095e-05
228    1.38488623e-05
229    3.69101836e-14
230    0.00192128928
231    -0.000379453417
232    0.000770566705
233    1.41747289e-14
234    2.04191997e-05
235    -2.09226541e-16
236    4.10655768e-06
237    -2.5425066e-17
238    2.38389934e-05
239    -3.52140308e-11
240    -2.77154646e-10
241    -1.40362174e-09
242    -1.74134444e-09
243    6.64746612e-08
244    1.08058738e-06
245    -2.91205947e-07
246    -1.2864574e-06
247    5.02877322e-08
248    -4.49328705e-16
249    6.25548346e-08
250    1.35076774e-05
251    -1.05205309e-06
252    -5.42856919e-16
253    -0.000236702119
254    0.000144732048
255    -7.9334998e-05
256    -5.27470394e-15
257    -0.00307475904
258    0.00072354099
259    -0.000413183796
260    5.28444372e-14
261    0.000115269718
262    0.000110689409
263    0.000282340517
264    2.8858095e-14
265    -5.77677824e-06
266    3.09104619e-16
267    -1.28830638e-06
268    6.45484029e-16
269    -3.06650405e-07
270    -5.93872973e-07
271    -2.44123408e-05
272    -5.53375381e-05
273    -6.98755417e-05
274    3.62593029e-06
275    -2.51637537e-06
276    1.18823693e-16
Sym=X
Ene=5e-06
Spin=Alpha
Occup=1
1    6.43114586e-10
2    -7.08745675e-09
3    5.22966264e-08
4    -1.72125339e-07
5    2.23920388e-06
6    8.65357943e-06
7    -5.31883061e-06
8    1.83345275e-06
9    1.3204104e-06
10    5.92068525e-16
11    -2.19564309e-05
12    -2.14847507e-05
13    -7.18279937e-06
14    2.37166418e-15
15    0.00013476614
16    2.75828366e-06
17    3.94252813e-05
18    3.21401887e-15
19    -0.00349237346
20    -0.000311301535
21    -0.000683729953
22    -1.56875549e-15
23    -0.000696623219
24    -0.000363054147
25    0.000106600905
26    8.32782975e-14
27    -1.54375477e-05
28    -6.3517016e-17
29    -6.55646466e-07
30    -1.97863539e-16
31    2.31319978e-06
32    4.55470362e-06
33    -2.59783815e-05
34    -1.22292177e-05
35    -2.08506376e-05
36    1.78688259e-06
37    -7.06291583e-06
38    9.074845e-16
39    1.95289143e-06
40    -8.39884065e-06
41    3.79135858e-05
42    -0.000320221585
43    -2.96821234e-06
44    -2.56168123e-07
45    6.80062188e-17
46    -1.23816721e-06
47    6.92023259e-07
48    -7.35721425e-05
49    2.9388832e-06
50    9.65060456e-06
51    1.0638685e-06
52    -1.81698245e-16
53    -5.58909654e-09
54    -9.16162392e-08
55    -1.52757974e-07
56    -2.30463504e-06
57    -3.6364757e-06
58    -7.88583572e-05
59    -1.27817939e-05
60    -2.4106693e-05
61    1.46953455e-05
62    1.14098938e-15
63    0.000296819276
64    -0.000320644737
65    0.00018891391
66    1.34230416e-15
67    -0.000589928446
68    0.000518543881
69    -0.000279234071
70    1.90676824e-15
71    -0.000798176954
72    0.00271424881
73    -0.00130528888
74    2.15523929e-14
75    0.00174010215
76    0.000250591946
77    0.000474816323
78    -3.36197113e-14
79    -0.000168291027
80    -7.83889759e-16
81    -5.70202075e-05
82    -1.01255291e-15
83    8.56274419e-05
84    0.000729715783
85    0.0055510357
86    0.0272183817
87    0.0926324435
88    0.22926822
89    0.108720342
90    0.329458473
91    0.00111496466
92    -0.000681220181
93    1.14020446e-15
94    0.00344672448
95    -0.000523338081
96    0.000315696254
97    -5.41081599e-16
98    -0.000354270656
99    0.000321526517
100    -0.000188825984
101    7.06884344e-15
102    0.00258772544
103    0.000183232378
104    -0.000160292468
105    -8.41033814e-15
106    0.0070585523
107    0.00125459585
108    -0.000545631912
109    1.80399898e-14
110    5.89694269e-05
111    -5.81757803e-16
112    -5.34100537e-05
113    -1.08999386e-16
114    -3.31490407e-05
115    5.06435794e-09
116    8.75270664e-08
117    1.32387777e-07
118    2.22747157e-06
119    3.36836451e-06
120    7.62053048e-05
121    1.28336921e-05
122    -2.1622957e-05
123    -1.7440978e-05
124    -1.00223974e-15
125    -0.000286018816
126    -0.000317892202
127    -0.000203533078
128    -1.55155782e-15
129    0.000617413155
130    0.000399511201
131    0.000261862321
132    -3.83595997e-15
133    -0.00101758951
134    0.00305408056
135    0.00146684756
136    -4.22649206e-15
137    -0.0004212603
138    0.000436077785
139    -0.00070925081
140    7.72797852e-14
141    -0.000175278501
142    -1.04788792e-15
143    5.23170643e-05
144    -1.08245475e-15
145    -7.65825828e-05
146    -0.000746422415
147    -0.00567812486
148    -0.0278415396
149    -0.0947530071
150    -0.234515771
151    -0.111194587
152    -0.337011484
153    0.00111501693
154    0.000670297589
155    -1.2799486e-15
156    -0.00352296317
157    -0.000521421195
158    -0.000310719125
159    -1.62694332e-15
160    0.000392223823
161    0.000317273782
162    0.000176743163
163    -3.92693929e-15
164    -0.00247804936
165    0.000137534566
166    0.000155735068
167    3.13260706e-15
168    -0.00626365238
169    0.00112269793
170    0.000324218375
171    -7.65515909e-15
172    6.44735417e-05
173    -1.59622412e-16
174    7.76157082e-05
175    9.21534485e-17
176    3.22358094e-05
177    -3.58945617e-10
178    1.12178548e-10
179    -2.02536848e-08
180    1.26012237e-08
181    -5.98576908e-07
182    -2.13793313e-06
183    1.07083027e-06
184    2.41248911e-05
185    -1.97842666e-06
186    6.90343665e-16
187    1.01810418e-05
188    -7.92782106e-05
189    5.80823182e-06
190    -3.71401704e-15
191    -7.33862104e-05
192    4.3921389e-05
193    2.77108694e-05
194    5.01026219e-15
195    0.000237166142
196    4.33205646e-05
197    7.94200227e-05
198    -7.38158151e-15
199    0.00056009967
200    0.00365734427
201    -9.07590134e-05
202    -1.10545862e-14
203    1.15801747e-05
204    -7.09218587e-16
205    1.34337405e-06
206    -1.0369957e-15
207    1.71420611e-06
208    -7.97033592e-10
209    1.66456323e-08
210    -7.96390453e-08
211    3.64017164e-07
212    -4.41036452e-06
213    -1.80551407e-05
214    1.24462483e-05
215    6.44943499e-06
216    -1.07343694e-05
217    1.86243004e-15
218    2.91165589e-05
219    -1.95368569e-05
220    3.77250985e-05
221    1.23018473e-15
222    -8.98962687e-05
223    -6.40252692e-05
224    -3.68996908e-05
225    7.13532127e-15
226    -0.000342170382
227    -0.000220204288
228    -3.30962052e-05
229    -3.2947076e-15
230    -0.00136094476
231    8.20347731e-05
232    -0.000451447862
233    -1.6889957e-14
234    -1.14020803e-05
235    8.79370578e-17
236    -3.21502709e-06
237    -1.53970095e-16
238    -1.56511129e-05
239    -9.724061e-10
240    -1.31125676e-08
241    -2.71982571e-08
242    -2.43978315e-07
243    9.1379023e-07
244    6.63518766e-06
245    -4.92298767e-06
246    6.55403938e-06
247    9.89524012e-06
248    -3.71903258e-16
249    -5.54006789e-06
250    -2.4651537e-05
251    -4.97678051e-05
252    3.2148324e-15
253    3.77828415e-05
254    -7.47638063e-06
255    7.08914399e-05
256    -4.10579521e-15
257    0.00464079151
258    -0.00172390681
259    0.000341482999
260    1.72258859e-14
261    -0.000436152401
262    -0.00029876178
263    -0.000322255693
264    -1.07423467e-13
265    -2.43647234e-05
266    -3.61822644e-16
267    8.8527176e-07
268    -3.10184228e-16
269    2.85786698e-05
270    -3.65510018e-06
271    -2.12202349e-05
272    8.80791401e-05
273    0.000735648405
274    7.98990085e-06
275    -2.56020172e-06
276    1.54660289e-17
Sym=X
Ene=0.050137
Spin=Alpha
Occup=1
1    1.69286562e-09
2    -1.15898115e-08
3    1.22100138e-07
4    -2.98420614e-07
5    4.76212766e-06
6    1.86036917e-05
7    -1.06950173e-05
8    9.79237801e-07
9    2.4504971e-06
10    6.91094269e-17
11    -4.97144797e-05
12    -1.37406155e-05
13    -1.53488627e-05
14    8.38870945e-16
15    0.000334597833
16    2.98560879e-05
17    0.0002002945
18    5.08101826e-15
19    -0.00206733819
20    -0.000440773458
21    0.000231401508
22    -4.94889194e-14
23    -0.00066625022
24    -0.000276542546
25    -4.80910475e-05
26    1.07348798e-13
27    -1.4148038e-05
28    1.33424775e-17
29    -3.57162993e-06
30    1.50809952e-16
31    7.91096037e-06
32    -3.55176042e-07
33    -2.50785112e-05
34    7.4314575e-06
35    -0.000122418787
36    -7.90283475e-07
37    -1.90368125e-06
38    2.33135718e-16
39    1.49545197e-06
40    7.41579541e-06
41    0.000162192455
42    0.000299838562
43    -3.05114019e-06
44    3.1374951e-06
45    -1.57393069e-16
46    -7.159176e-06
47    3.45104017e-08
48    -7.503932e-06
49    -0.000118661767
50    5.13483081e-06
51    1.0435211e-06
52    5.31781546e-17
53    9.16208693e-10
54    -2.00233637e-09
55    5.66720771e-08
56    -6.88010444e-08
57    1.87625482e-06
58    7.36460849e-06
59    -3.73993705e-06
60    6.03045266e-07
61    -5.97475532e-07
62    -8.10850424e-16
63    -2.11030911e-05
64    -5.11089009e-06
65    -2.4780632e-06
66    2.84255144e-15
67    4.57198653e-05
68    0.000266359736
69    -0.000111046273
70    -3.51633304e-15
71    0.000984697465
72    0.00115175762
73    -0.000125353144
74    -1.82342623e-14
75    0.00107113404
76    0.00024516881
77    0.000437095094
78    -5.26042553e-14
79    3.12382343e-06
80    -4.9548878e-16
81    -1.4934675e-06
82    -3.41457152e-16
83    -5.00826267e-06
84    -2.92450539e-08
85    -2.25414834e-07
86    -1.08414547e-06
87    -3.77024454e-06
88    -8.60865133e-06
89    -1.83775903e-06
90    -1.48563317e-05
91    1.7567409e-06
92    6.15848217e-07
93    6.25810471e-16
94    -8.71966304e-06
95    -5.83639616e-06
96    -1.2401863e-06
97    -1.45101121e-15
98    7.75431948e-05
99    4.96455845e-05
100    -1.93573525e-05
101    4.88774574e-15
102    0.000452374383
103    2.5644952e-05
104    -8.50729228e-05
105    -6.23844418e-15
106    0.00248914261
107    0.000389169465
108    -8.59016704e-05
109    2.06964031e-14
110    -1.70174439e-06
111    -5.74952728e-17
112    -1.12009111e-06
113    -3.33583309e-16
114    6.64333818e-08
115    7.87195785e-09
116    1.20478923e-07
117    2.34444476e-07