[Molden Format]
[Atoms] (Angs)
  C      1    6     -0.00714236     -1.70213747     -0.00000000
  H      2    1     -2.06882847     -1.44022412      0.00000000
  H      3    1     -0.12337987     -2.77567521      0.00000000
  H      4    1      0.04651892      1.98813947     -0.00000000
  C      5    6     -1.21953563      0.40211669      0.00000000
  O      6    8     -2.25921553      1.03043814      0.00000000
  C      7    6      1.28797806      0.34644937     -0.00000000
  O      8    8      2.31273661      1.00537216     -0.00000000
  N      9    7      0.03446295      0.97739857     -0.00000000
  N     10    7     -1.17287765     -0.98229824      0.00000000
  C     11    6      1.20107039     -1.10433419     -0.00000000
  H     12    1      2.11220096     -1.67699125     -0.00000000
[GTO]
1    0
S    1    1.000000
   4.56324000E+03    1.96665000E-03 
S    1    1.000000
   6.82024000E+02    1.52306000E-02 
S    1    1.000000
   1.54973000E+02    7.61269000E-02 
S    1    1.000000
   4.44553000E+01    2.60801000E-01 
S    1    1.000000
   1.30290000E+01    6.16462000E-01 
S    1    1.000000
   1.82773000E+00    2.21006000E-01 
SP   3    1.000000
   2.09642000E+01    1.14660000E-01   4.02487000E-02 
   4.80331000E+00    9.19999000E-01   2.37594000E-01 
   1.45933000E+00   -3.03068000E-03   8.15854000E-01 
SP   1    1.000000
   4.83456000E-01    1.00000000E+00   1.00000000E+00 
SP   1    1.000000
   1.45585000E-01    1.00000000E+00   1.00000000E+00 
SP   1    1.000000
   4.38000000E-02    1.00000000E+00   1.00000000E+00 
SP   1    1.000000
   1.31927711E-02    1.00000000E+00   1.00000000E+00 
D    1    1.000000
   6.26000000E-01    1.00000000E+00 

2    0
S    3    1.000000
   3.38650000E+01    2.54938000E-02 
   5.09479000E+00    1.90373000E-01 
   1.15879000E+00    8.52161000E-01 
S    1    1.000000
   3.25840000E-01    1.00000000E+00 
S    1    1.000000
   1.02741000E-01    1.00000000E+00 
S    1    1.000000
   3.60000000E-02    1.00000000E+00 
P    1    1.000000
   7.50000000E-01    1.00000000E+00 

3    0
S    3    1.000000
   3.38650000E+01    2.54938000E-02 
   5.09479000E+00    1.90373000E-01 
   1.15879000E+00    8.52161000E-01 
S    1    1.000000
   3.25840000E-01    1.00000000E+00 
S    1    1.000000
   1.02741000E-01    1.00000000E+00 
S    1    1.000000
   3.60000000E-02    1.00000000E+00 
P    1    1.000000
   7.50000000E-01    1.00000000E+00 

4    0
S    3    1.000000
   3.38650000E+01    2.54938000E-02 
   5.09479000E+00    1.90373000E-01 
   1.15879000E+00    8.52161000E-01 
S    1    1.000000
   3.25840000E-01    1.00000000E+00 
S    1    1.000000
   1.02741000E-01    1.00000000E+00 
S    1    1.000000
   3.60000000E-02    1.00000000E+00 
P    1    1.000000
   7.50000000E-01    1.00000000E+00 

5    0
S    1    1.000000
   4.56324000E+03    1.96665000E-03 
S    1    1.000000
   6.82024000E+02    1.52306000E-02 
S    1    1.000000
   1.54973000E+02    7.61269000E-02 
S    1    1.000000
   4.44553000E+01    2.60801000E-01 
S    1    1.000000
   1.30290000E+01    6.16462000E-01 
S    1    1.000000
   1.82773000E+00    2.21006000E-01 
SP   3    1.000000
   2.09642000E+01    1.14660000E-01   4.02487000E-02 
   4.80331000E+00    9.19999000E-01   2.37594000E-01 
   1.45933000E+00   -3.03068000E-03   8.15854000E-01 
SP   1    1.000000
   4.83456000E-01    1.00000000E+00   1.00000000E+00 
SP   1    1.000000
   1.45585000E-01    1.00000000E+00   1.00000000E+00 
SP   1    1.000000
   4.38000000E-02    1.00000000E+00   1.00000000E+00 
SP   1    1.000000
   1.31927711E-02    1.00000000E+00   1.00000000E+00 
D    1    1.000000
   6.26000000E-01    1.00000000E+00 

6    0
S    1    1.000000
   8.58850000E+03    1.89515000E-03 
S    1    1.000000
   1.29723000E+03    1.43859000E-02 
S    1    1.000000
   2.99296000E+02    7.07320000E-02 
S    1    1.000000
   8.73771000E+01    2.40001000E-01 
S    1    1.000000
   2.56789000E+01    5.94797000E-01 
S    1    1.000000
   3.74004000E+00    2.80802000E-01 
SP   3    1.000000
   4.21175000E+01    1.13889000E-01   3.65114000E-02 
   9.62837000E+00    9.20811000E-01   2.37153000E-01 
   2.85332000E+00   -3.27447000E-03   8.19702000E-01 
SP   1    1.000000
   9.05661000E-01    1.00000000E+00   1.00000000E+00 
SP   1    1.000000
   2.55611000E-01    1.00000000E+00   1.00000000E+00 
SP   1    1.000000
   8.45000000E-02    1.00000000E+00   1.00000000E+00 
SP   1    1.000000
   2.54518072E-02    1.00000000E+00   1.00000000E+00 
D    1    1.000000
   1.29200000E+00    1.00000000E+00 

7    0
S    1    1.000000
   4.56324000E+03    1.96665000E-03 
S    1    1.000000
   6.82024000E+02    1.52306000E-02 
S    1    1.000000
   1.54973000E+02    7.61269000E-02 
S    1    1.000000
   4.44553000E+01    2.60801000E-01 
S    1    1.000000
   1.30290000E+01    6.16462000E-01 
S    1    1.000000
   1.82773000E+00    2.21006000E-01 
SP   3    1.000000
   2.09642000E+01    1.14660000E-01   4.02487000E-02 
   4.80331000E+00    9.19999000E-01   2.37594000E-01 
   1.45933000E+00   -3.03068000E-03   8.15854000E-01 
SP   1    1.000000
   4.83456000E-01    1.00000000E+00   1.00000000E+00 
SP   1    1.000000
   1.45585000E-01    1.00000000E+00   1.00000000E+00 
SP   1    1.000000
   4.38000000E-02    1.00000000E+00   1.00000000E+00 
SP   1    1.000000
   1.31927711E-02    1.00000000E+00   1.00000000E+00 
D    1    1.000000
   6.26000000E-01    1.00000000E+00 

8    0
S    1    1.000000
   8.58850000E+03    1.89515000E-03 
S    1    1.000000
   1.29723000E+03    1.43859000E-02 
S    1    1.000000
   2.99296000E+02    7.07320000E-02 
S    1    1.000000
   8.73771000E+01    2.40001000E-01 
S    1    1.000000
   2.56789000E+01    5.94797000E-01 
S    1    1.000000
   3.74004000E+00    2.80802000E-01 
SP   3    1.000000
   4.21175000E+01    1.13889000E-01   3.65114000E-02 
   9.62837000E+00    9.20811000E-01   2.37153000E-01 
   2.85332000E+00   -3.27447000E-03   8.19702000E-01 
SP   1    1.000000
   9.05661000E-01    1.00000000E+00   1.00000000E+00 
SP   1    1.000000
   2.55611000E-01    1.00000000E+00   1.00000000E+00 
SP   1    1.000000
   8.45000000E-02    1.00000000E+00   1.00000000E+00 
SP   1    1.000000
   2.54518072E-02    1.00000000E+00   1.00000000E+00 
D    1    1.000000
   1.29200000E+00    1.00000000E+00 

9    0
S    1    1.000000
   6.29348000E+03    1.96979000E-03 
S    1    1.000000
   9.49044000E+02    1.49613000E-02 
S    1    1.000000
   2.18776000E+02    7.35006000E-02 
S    1    1.000000
   6.36916000E+01    2.48937000E-01 
S    1    1.000000
   1.88282000E+01    6.02460000E-01 
S    1    1.000000
   2.72023000E+00    2.56202000E-01 
SP   3    1.000000
   3.06331000E+01    1.11906000E-01   3.83119000E-02 
   7.02614000E+00    9.21666000E-01   2.37403000E-01 
   2.11205000E+00   -2.56919000E-03   8.17592000E-01 
SP   1    1.000000
   6.84009000E-01    1.00000000E+00   1.00000000E+00 
SP   1    1.000000
   2.00878000E-01    1.00000000E+00   1.00000000E+00 
SP   1    1.000000
   6.39000000E-02    1.00000000E+00   1.00000000E+00 
SP   1    1.000000
   1.92469880E-02    1.00000000E+00   1.00000000E+00 
D    1    1.000000
   9.13000000E-01    1.00000000E+00 

10    0
S    1    1.000000
   6.29348000E+03    1.96979000E-03 
S    1    1.000000
   9.49044000E+02    1.49613000E-02 
S    1    1.000000
   2.18776000E+02    7.35006000E-02 
S    1    1.000000
   6.36916000E+01    2.48937000E-01 
S    1    1.000000
   1.88282000E+01    6.02460000E-01 
S    1    1.000000
   2.72023000E+00    2.56202000E-01 
SP   3    1.000000
   3.06331000E+01    1.11906000E-01   3.83119000E-02 
   7.02614000E+00    9.21666000E-01   2.37403000E-01 
   2.11205000E+00   -2.56919000E-03   8.17592000E-01 
SP   1    1.000000
   6.84009000E-01    1.00000000E+00   1.00000000E+00 
SP   1    1.000000
   2.00878000E-01    1.00000000E+00   1.00000000E+00 
SP   1    1.000000
   6.39000000E-02    1.00000000E+00   1.00000000E+00 
SP   1    1.000000
   1.92469880E-02    1.00000000E+00   1.00000000E+00 
D    1    1.000000
   9.13000000E-01    1.00000000E+00 

11    0
S    1    1.000000
   4.56324000E+03    1.96665000E-03 
S    1    1.000000
   6.82024000E+02    1.52306000E-02 
S    1    1.000000
   1.54973000E+02    7.61269000E-02 
S    1    1.000000
   4.44553000E+01    2.60801000E-01 
S    1    1.000000
   1.30290000E+01    6.16462000E-01 
S    1    1.000000
   1.82773000E+00    2.21006000E-01 
SP   3    1.000000
   2.09642000E+01    1.14660000E-01   4.02487000E-02 
   4.80331000E+00    9.19999000E-01   2.37594000E-01 
   1.45933000E+00   -3.03068000E-03   8.15854000E-01 
SP   1    1.000000
   4.83456000E-01    1.00000000E+00   1.00000000E+00 
SP   1    1.000000
   1.45585000E-01    1.00000000E+00   1.00000000E+00 
SP   1    1.000000
   4.38000000E-02    1.00000000E+00   1.00000000E+00 
SP   1    1.000000
   1.31927711E-02    1.00000000E+00   1.00000000E+00 
D    1    1.000000
   6.26000000E-01    1.00000000E+00 

12    0
S    3    1.000000
   3.38650000E+01    2.54938000E-02 
   5.09479000E+00    1.90373000E-01 
   1.15879000E+00    8.52161000E-01 
S    1    1.000000
   3.25840000E-01    1.00000000E+00 
S    1    1.000000
   1.02741000E-01    1.00000000E+00 
S    1    1.000000
   3.60000000E-02    1.00000000E+00 
P    1    1.000000
   7.50000000E-01    1.00000000E+00 

[MO]
Sym=X
Ene=0.039606
Spin=Alpha
Occup=1
1    1.69305181e-09
2    -1.1590205e-08
3    1.22111627e-07
4    -2.98434149e-07
5    4.76251025e-06
6    1.86052172e-05
7    -1.06957813e-05
8    9.78865782e-07
9    2.45063877e-06
10    6.89312987e-17
11    -4.97189399e-05
12    -1.37367879e-05
13    -1.53501071e-05
14    8.38289315e-16
15    0.000334632122
16    2.98621893e-05
17    0.000200328565
18    5.0811557e-15
19    -0.002066677
20    -0.000440774717
21    0.00023168025
22    -4.95000189e-14
23    -0.000666177913
24    -0.000276488274
25    -4.81373257e-05
26    1.07346655e-13
27    -1.4146291e-05
28    1.33664583e-17
29    -3.57225293e-06
30    1.50910294e-16
31    7.91205766e-06
32    -3.56754485e-07
33    -2.50758694e-05
34    7.43721583e-06
35    -0.000122440673
36    -7.91055491e-07
37    -1.90180961e-06
38    2.32892549e-16
39    1.49516189e-06
40    7.42029273e-06
41    0.000162218075
42    0.000300014044
43    -3.05088194e-06
44    3.13831551e-06
45    -1.5745233e-16
46    -7.16044974e-06
47    3.42913432e-08
48    -7.48154291e-06
49    -0.00011869058
50    5.13286806e-06
51    1.04341678e-06
52    5.32502775e-17
53    9.18258345e-10
54    -1.97273313e-09
55    5.67355204e-08
56    -6.80606913e-08
57    1.87788883e-06
58    7.39222223e-06
59    -3.73661912e-06
60    6.1109985e-07
61    -6.0243952e-07
62    -8.11415252e-16
63    -2.12054751e-05
64    -5.00683745e-06
65    -2.54065603e-06
66    2.84277793e-15
67    4.592424e-05
68    0.000266252034
69    -0.000110980675
70    -3.51778418e-15
71    0.000985190564
72    0.00115113697
73    -0.000124954099
74    -1.82456162e-14
75    0.00107081423
76    0.000245144091
77    0.000437041816
78    -5.26055651e-14
79    3.17979832e-06
80    -4.95347752e-16
81    -1.47510103e-06
82    -3.41204916e-16
83    -5.03754538e-06
84    -2.68782171e-07
85    -2.04760318e-06
86    -1.00188728e-05
87    -3.4177862e-05
88    -8.38682942e-05
89    -3.75257987e-05
90    -0.000123005035
91    1.39116443e-06
92    8.39604251e-07
93    6.25583067e-16
94    -9.85310169e-06
95    -5.66597941e-06
96    -1.3441051e-06
97    -1.45117413e-15
98    7.7677683e-05
99    4.95516941e-05
100    -1.9299913e-05
101    4.88657248e-15
102    0.000451631125
103    2.55908242e-05
104    -8.5040272e-05
105    -6.23714756e-15
106    0.0024874098
107    0.000388848975
108    -8.57427259e-05
109    2.06953386e-14
110    -1.72150057e-06
111    -5.73178033e-17
112    -1.10282205e-06
113    -3.33625818e-16
114    7.7330193e-08
115    7.87214292e-09
116    1.20478467e-07
117    2.3445604e-07
118    3.05079989e-06
119    6.34124419e-06
120    0.000112879273
121    1.47003276e-05
122    -3.22216083e-05
123    -2.49243367e-05
124    4.46889579e-16
125    -0.000416073029
126    -0.000433487014
127    -0.000287156788
128    -3.15488623e-15
129    0.000803786995
130    0.000326960973
131    0.000212154349
132    3.99527498e-15
133    0.000396925842
134    0.00317649833
135    0.00166085618
136    -7.30094537e-14
137    -0.000189852159
138    0.000439826941
139    -0.000744527723
140    6.40958816e-14
141    -0.0002488478
142    -5.73877295e-16
143    7.36604216e-05
144    -3.9771741e-16
145    -0.000112531077
146    -0.00104385842
147    -0.00794076052
148    -0.0389358864
149    -0.132510473
150    -0.327965287
151    -0.155500076
152    -0.471306894
153    0.00155769754
154    0.000937586994
155    -1.08695103e-15
156    -0.00493804871
157    -0.000723772722
158    -0.000434260892
159    5.66494285e-16
160    0.00063911212
161    0.000388885393
162    0.000223584771
163    -6.57374942e-15
164    -0.00302005584
165    0.000150992095
166    0.000147216282
167    1.3531789e-14
168    -0.00642895752
169    0.00119536605
170    0.000375777328
171    4.19383445e-15
172    9.17408565e-05
173    -6.04232374e-17
174    0.000107304571
175    1.79882948e-16
176    4.55159909e-05
177    7.82456389e-10
178    -2.43646711e-08
179    9.54324869e-08
180    -5.21823929e-07
181    5.81835174e-06
182    2.40189071e-05
183    -1.69563411e-05
184    1.73722382e-05
185    -1.30695491e-06
186    -7.64428616e-16
187    -2.40901205e-05
188    -5.70345834e-05
189    8.66683894e-06
190    4.44622436e-16
191    -0.00012310423
192    4.83496656e-05
193    5.73179305e-05
194    -6.75478399e-15
195    0.000144577621
196    9.8392495e-05
197    -9.73501007e-05
198    3.02132254e-14
199    0.00217578984
200    0.00283102789
201    -5.58686048e-05
202    2.77240158e-14
203    1.2380078e-05
204    -6.3024291e-16
205    6.28252485e-06
206    -2.56595886e-16
207    -2.84334196e-05
208    1.69696094e-10
209    -3.72489552e-09
210    1.79661844e-08
211    -8.10720659e-08
212    9.36611628e-07
213    3.69123516e-06
214    -2.36644632e-06
215    5.11646947e-07
216    -5.73904983e-07
217    -3.44319878e-16
218    -2.63456196e-06
219    -4.0782477e-06
220    2.60334594e-06
221    3.47770615e-15
222    -0.000117879035
223    -9.70259914e-05
224    -3.2703982e-05
225    -5.56324518e-15
226    -0.000668035023
227    -0.00025015717
228    -3.27427852e-05
229    3.14871473e-14
230    -2.4460331e-05
231    -0.000256344223
232    0.000122186164
233    -9.75933902e-15
234    4.0221064e-06
235    -8.16230642e-17
236    -4.80435882e-07
237    -2.40193848e-16
238    1.42399837e-06
239    -1.39436648e-09
240    -1.86092329e-08
241    -3.94099491e-08
242    -3.42911665e-07
243    1.34296107e-06
244    1.03361669e-05
245    -7.16967481e-06
246    7.90792088e-06
247    1.38878775e-05
248    -9.59517864e-16
249    -7.68672796e-06
250    -2.12663881e-05
251    -7.06301321e-05
252    3.96514485e-15
253    -0.000178633449
254    0.000131079149
255    2.15606173e-05
256    -1.09002302e-14
257    0.00348340426
258    -0.00170336128
259    7.35142563e-05
260    7.5767905e-14
261    -0.000497244775
262    -0.000309580247
263    -0.000174577513
264    -1.22013329e-13
265    -3.97237496e-05
266    -2.03739821e-16
267    -2.1777544e-08
268    1.97426623e-16
269    3.96679917e-05
270    -5.69248893e-06
271    -5.35500333e-05
272    6.90653499e-05
273    0.000960487663
274    1.47198799e-05
275    -6.04128624e-06
276    1.37828531e-16
[5D]