[Molden Format]
[Atoms] (Angs)
  C      1    6     -0.00714236     -1.70213747     -0.00000000
  H      2    1     -2.06882847     -1.44022412      0.00000000
  H      3    1     -0.12337987     -2.77567521      0.00000000
  H      4    1      0.04651892      1.98813947     -0.00000000
  C      5    6     -1.21953563      0.40211669      0.00000000
  O      6    8     -2.25921553      1.03043814      0.00000000
  C      7    6      1.28797806      0.34644937     -0.00000000
  O      8    8      2.31273661      1.00537216     -0.00000000
  N      9    7      0.03446295      0.97739857     -0.00000000
  N     10    7     -1.17287765     -0.98229824      0.00000000
  C     11    6      1.20107039     -1.10433419     -0.00000000
  H     12    1      2.11220096     -1.67699125     -0.00000000
[GTO]
1    0
S    1    1.000000
   4.56324000E+03    1.96665000E-03 
S    1    1.000000
   6.82024000E+02    1.52306000E-02 
S    1    1.000000
   1.54973000E+02    7.61269000E-02 
S    1    1.000000
   4.44553000E+01    2.60801000E-01 
S    1    1.000000
   1.30290000E+01    6.16462000E-01 
S    1    1.000000
   1.82773000E+00    2.21006000E-01 
SP   3    1.000000
   2.09642000E+01    1.14660000E-01   4.02487000E-02 
   4.80331000E+00    9.19999000E-01   2.37594000E-01 
   1.45933000E+00   -3.03068000E-03   8.15854000E-01 
SP   1    1.000000
   4.83456000E-01    1.00000000E+00   1.00000000E+00 
SP   1    1.000000
   1.45585000E-01    1.00000000E+00   1.00000000E+00 
SP   1    1.000000
   4.38000000E-02    1.00000000E+00   1.00000000E+00 
SP   1    1.000000
   1.31927711E-02    1.00000000E+00   1.00000000E+00 
D    1    1.000000
   6.26000000E-01    1.00000000E+00 

2    0
S    3    1.000000
   3.38650000E+01    2.54938000E-02 
   5.09479000E+00    1.90373000E-01 
   1.15879000E+00    8.52161000E-01 
S    1    1.000000
   3.25840000E-01    1.00000000E+00 
S    1    1.000000
   1.02741000E-01    1.00000000E+00 
S    1    1.000000
   3.60000000E-02    1.00000000E+00 
P    1    1.000000
   7.50000000E-01    1.00000000E+00 

3    0
S    3    1.000000
   3.38650000E+01    2.54938000E-02 
   5.09479000E+00    1.90373000E-01 
   1.15879000E+00    8.52161000E-01 
S    1    1.000000
   3.25840000E-01    1.00000000E+00 
S    1    1.000000
   1.02741000E-01    1.00000000E+00 
S    1    1.000000
   3.60000000E-02    1.00000000E+00 
P    1    1.000000
   7.50000000E-01    1.00000000E+00 

4    0
S    3    1.000000
   3.38650000E+01    2.54938000E-02 
   5.09479000E+00    1.90373000E-01 
   1.15879000E+00    8.52161000E-01 
S    1    1.000000
   3.25840000E-01    1.00000000E+00 
S    1    1.000000
   1.02741000E-01    1.00000000E+00 
S    1    1.000000
   3.60000000E-02    1.00000000E+00 
P    1    1.000000
   7.50000000E-01    1.00000000E+00 

5    0
S    1    1.000000
   4.56324000E+03    1.96665000E-03 
S    1    1.000000
   6.82024000E+02    1.52306000E-02 
S    1    1.000000
   1.54973000E+02    7.61269000E-02 
S    1    1.000000
   4.44553000E+01    2.60801000E-01 
S    1    1.000000
   1.30290000E+01    6.16462000E-01 
S    1    1.000000
   1.82773000E+00    2.21006000E-01 
SP   3    1.000000
   2.09642000E+01    1.14660000E-01   4.02487000E-02 
   4.80331000E+00    9.19999000E-01   2.37594000E-01 
   1.45933000E+00   -3.03068000E-03   8.15854000E-01 
SP   1    1.000000
   4.83456000E-01    1.00000000E+00   1.00000000E+00 
SP   1    1.000000
   1.45585000E-01    1.00000000E+00   1.00000000E+00 
SP   1    1.000000
   4.38000000E-02    1.00000000E+00   1.00000000E+00 
SP   1    1.000000
   1.31927711E-02    1.00000000E+00   1.00000000E+00 
D    1    1.000000
   6.26000000E-01    1.00000000E+00 

6    0
S    1    1.000000
   8.58850000E+03    1.89515000E-03 
S    1    1.000000
   1.29723000E+03    1.43859000E-02 
S    1    1.000000
   2.99296000E+02    7.07320000E-02 
S    1    1.000000
   8.73771000E+01    2.40001000E-01 
S    1    1.000000
   2.56789000E+01    5.94797000E-01 
S    1    1.000000
   3.74004000E+00    2.80802000E-01 
SP   3    1.000000
   4.21175000E+01    1.13889000E-01   3.65114000E-02 
   9.62837000E+00    9.20811000E-01   2.37153000E-01 
   2.85332000E+00   -3.27447000E-03   8.19702000E-01 
SP   1    1.000000
   9.05661000E-01    1.00000000E+00   1.00000000E+00 
SP   1    1.000000
   2.55611000E-01    1.00000000E+00   1.00000000E+00 
SP   1    1.000000
   8.45000000E-02    1.00000000E+00   1.00000000E+00 
SP   1    1.000000
   2.54518072E-02    1.00000000E+00   1.00000000E+00 
D    1    1.000000
   1.29200000E+00    1.00000000E+00 

7    0
S    1    1.000000
   4.56324000E+03    1.96665000E-03 
S    1    1.000000
   6.82024000E+02    1.52306000E-02 
S    1    1.000000
   1.54973000E+02    7.61269000E-02 
S    1    1.000000
   4.44553000E+01    2.60801000E-01 
S    1    1.000000
   1.30290000E+01    6.16462000E-01 
S    1    1.000000
   1.82773000E+00    2.21006000E-01 
SP   3    1.000000
   2.09642000E+01    1.14660000E-01   4.02487000E-02 
   4.80331000E+00    9.19999000E-01   2.37594000E-01 
   1.45933000E+00   -3.03068000E-03   8.15854000E-01 
SP   1    1.000000
   4.83456000E-01    1.00000000E+00   1.00000000E+00 
SP   1    1.000000
   1.45585000E-01    1.00000000E+00   1.00000000E+00 
SP   1    1.000000
   4.38000000E-02    1.00000000E+00   1.00000000E+00 
SP   1    1.000000
   1.31927711E-02    1.00000000E+00   1.00000000E+00 
D    1    1.000000
   6.26000000E-01    1.00000000E+00 

8    0
S    1    1.000000
   8.58850000E+03    1.89515000E-03 
S    1    1.000000
   1.29723000E+03    1.43859000E-02 
S    1    1.000000
   2.99296000E+02    7.07320000E-02 
S    1    1.000000
   8.73771000E+01    2.40001000E-01 
S    1    1.000000
   2.56789000E+01    5.94797000E-01 
S    1    1.000000
   3.74004000E+00    2.80802000E-01 
SP   3    1.000000
   4.21175000E+01    1.13889000E-01   3.65114000E-02 
   9.62837000E+00    9.20811000E-01   2.37153000E-01 
   2.85332000E+00   -3.27447000E-03   8.19702000E-01 
SP   1    1.000000
   9.05661000E-01    1.00000000E+00   1.00000000E+00 
SP   1    1.000000
   2.55611000E-01    1.00000000E+00   1.00000000E+00 
SP   1    1.000000
   8.45000000E-02    1.00000000E+00   1.00000000E+00 
SP   1    1.000000
   2.54518072E-02    1.00000000E+00   1.00000000E+00 
D    1    1.000000
   1.29200000E+00    1.00000000E+00 

9    0
S    1    1.000000
   6.29348000E+03    1.96979000E-03 
S    1    1.000000
   9.49044000E+02    1.49613000E-02 
S    1    1.000000
   2.18776000E+02    7.35006000E-02 
S    1    1.000000
   6.36916000E+01    2.48937000E-01 
S    1    1.000000
   1.88282000E+01    6.02460000E-01 
S    1    1.000000
   2.72023000E+00    2.56202000E-01 
SP   3    1.000000
   3.06331000E+01    1.11906000E-01   3.83119000E-02 
   7.02614000E+00    9.21666000E-01   2.37403000E-01 
   2.11205000E+00   -2.56919000E-03   8.17592000E-01 
SP   1    1.000000
   6.84009000E-01    1.00000000E+00   1.00000000E+00 
SP   1    1.000000
   2.00878000E-01    1.00000000E+00   1.00000000E+00 
SP   1    1.000000
   6.39000000E-02    1.00000000E+00   1.00000000E+00 
SP   1    1.000000
   1.92469880E-02    1.00000000E+00   1.00000000E+00 
D    1    1.000000
   9.13000000E-01    1.00000000E+00 

10    0
S    1    1.000000
   6.29348000E+03    1.96979000E-03 
S    1    1.000000
   9.49044000E+02    1.49613000E-02 
S    1    1.000000
   2.18776000E+02    7.35006000E-02 
S    1    1.000000
   6.36916000E+01    2.48937000E-01 
S    1    1.000000
   1.88282000E+01    6.02460000E-01 
S    1    1.000000
   2.72023000E+00    2.56202000E-01 
SP   3    1.000000
   3.06331000E+01    1.11906000E-01   3.83119000E-02 
   7.02614000E+00    9.21666000E-01   2.37403000E-01 
   2.11205000E+00   -2.56919000E-03   8.17592000E-01 
SP   1    1.000000
   6.84009000E-01    1.00000000E+00   1.00000000E+00 
SP   1    1.000000
   2.00878000E-01    1.00000000E+00   1.00000000E+00 
SP   1    1.000000
   6.39000000E-02    1.00000000E+00   1.00000000E+00 
SP   1    1.000000
   1.92469880E-02    1.00000000E+00   1.00000000E+00 
D    1    1.000000
   9.13000000E-01    1.00000000E+00 

11    0
S    1    1.000000
   4.56324000E+03    1.96665000E-03 
S    1    1.000000
   6.82024000E+02    1.52306000E-02 
S    1    1.000000
   1.54973000E+02    7.61269000E-02 
S    1    1.000000
   4.44553000E+01    2.60801000E-01 
S    1    1.000000
   1.30290000E+01    6.16462000E-01 
S    1    1.000000
   1.82773000E+00    2.21006000E-01 
SP   3    1.000000
   2.09642000E+01    1.14660000E-01   4.02487000E-02 
   4.80331000E+00    9.19999000E-01   2.37594000E-01 
   1.45933000E+00   -3.03068000E-03   8.15854000E-01 
SP   1    1.000000
   4.83456000E-01    1.00000000E+00   1.00000000E+00 
SP   1    1.000000
   1.45585000E-01    1.00000000E+00   1.00000000E+00 
SP   1    1.000000
   4.38000000E-02    1.00000000E+00   1.00000000E+00 
SP   1    1.000000
   1.31927711E-02    1.00000000E+00   1.00000000E+00 
D    1    1.000000
   6.26000000E-01    1.00000000E+00 

12    0
S    3    1.000000
   3.38650000E+01    2.54938000E-02 
   5.09479000E+00    1.90373000E-01 
   1.15879000E+00    8.52161000E-01 
S    1    1.000000
   3.25840000E-01    1.00000000E+00 
S    1    1.000000
   1.02741000E-01    1.00000000E+00 
S    1    1.000000
   3.60000000E-02    1.00000000E+00 
P    1    1.000000
   7.50000000E-01    1.00000000E+00 

[MO]
Sym=X
Ene=0.000909
Spin=Alpha
Occup=1
1    -7.98404188e-10
2    1.62613889e-09
3    -4.91306132e-08
4    5.66986188e-08
5    -1.63076026e-06
6    -6.50528425e-06
7    3.24774082e-06
8    1.62861693e-06
9    -5.98620177e-07
10    7.76748479e-16
11    1.90553718e-05
12    -1.67846613e-05
13    5.30532848e-06
14    2.54095376e-15
15    -0.000146858491
16    -2.6359511e-05
17    -0.000146911834
18    -5.60066444e-16
19    -0.00289708327
20    2.11358499e-06
21    -0.00121289039
22    4.79890248e-14
23    -0.000320185171
24    -0.000238613638
25    0.000201296409
26    1.01588057e-14
27    -7.72117224e-06
28    -1.04398049e-16
29    2.6874898e-06
30    -4.3610208e-16
31    -4.72109122e-06
32    6.87558057e-06
33    -1.17040077e-05
34    -2.50359056e-05
35    9.44345089e-05
36    3.35812858e-06
37    -8.17051748e-06
38    1.06142823e-15
39    1.27548707e-06
40    -1.95410229e-05
41    -0.000110399266
42    -0.000762392704
43    -1.148728e-06
44    -3.5510907e-06
45    2.57035792e-16
46    5.49573435e-06
47    9.54843308e-07
48    -9.76211058e-05
49    0.000124649619
50    8.59222736e-06
51    4.62551061e-07
52    -3.13879506e-16
53    -8.92464764e-09
54    -1.29015758e-07
55    -2.76029691e-07
56    -3.22672282e-06
57    -7.10609201e-06
58    -0.000120274613
59    -1.44869578e-05
60    -3.50944127e-05
61    2.16267337e-05
62    2.45511677e-15
63    0.000445991737
64    -0.000453463658
65    0.00027273846
66    -9.65252083e-16
67    -0.000890243037
68    0.000471362624
69    -0.000286701586
70    6.2966488e-15
71    -0.00214121745
72    0.00271339717
73    -0.00173985211
74    4.93370325e-14
75    0.00140181001
76    0.000109592737
77    0.000235512226
78    5.30539642e-15
79    -0.000243894882
80    -6.18340359e-16
81    -8.00459891e-05
82    -1.10176842e-15
83    0.000127565363
84    0.00104381778
85    0.00794045031
86    0.038934372
87    0.132505609
88    0.327954828
89    0.155515835
90    0.471273669
91    0.00159306632
92    -0.000975044915
93    9.95733128e-16
94    0.0049390579
95    -0.000742660536
96    0.000452831894
97    6.9886188e-16
98    -0.000585459071
99    0.000409520692
100    -0.000250448983
101    5.15006688e-15
102    0.00324231605
103    0.000236065735
104    -0.000142930943
105    -5.69793975e-15
106    0.00757001218
107    0.00139955787
108    -0.000693280668
109    4.79689594e-15
110    8.60774111e-05
111    -7.73788757e-16
112    -7.52610022e-05
113    1.82685572e-16
114    -4.74839397e-05
115    -7.46235739e-10
116    2.90872501e-09
117    -4.86013605e-08
118    8.94997265e-08
119    -1.61807493e-06
120    -5.57055546e-06
121    3.43524067e-06
122    1.77602874e-06
123    3.51306393e-07
124    -1.88677556e-15
125    1.32024639e-05
126    -1.47070711e-05
127    3.39109184e-07
128    9.82731051e-16
129    6.72639517e-05
130    0.000239530269
131    0.000159188049
132    -9.54008506e-15
133    -0.00185802378
134    0.00114405051
135    0.000412264069
136    6.8045571e-14
137    -0.000409770585
138    0.00017728705
139    -0.000258734388
140    4.54712523e-14
141    1.86931209e-06
142    -9.16184826e-16
143    6.67377886e-08
144    -1.1443843e-15
145    4.67767275e-06
146    -8.13259701e-06
147    -6.18613258e-05
148    -0.000303355546
149    -0.00103229039
150    -0.00255599552
151    -0.00121513488
152    -0.00366950282
153    1.38065082e-05
154    7.11262378e-06
155    -7.27382412e-16
156    -2.69701892e-05
157    -1.11869011e-05
158    -3.66373567e-06
159    -2.90152019e-15
160    -8.76611496e-05
161    5.90842645e-05
162    2.58620977e-05
163    1.05521917e-15
164    -0.000479042593
165    4.34578468e-05
166    7.331753e-05
167    -9.25216587e-15
168    -0.00243337965
169    0.000392483672
170    8.23175439e-05
171    -1.52033066e-14
172    -8.96608082e-07
173    -1.66954002e-16
174    2.10361059e-06
175    -5.07586936e-17
176    -8.99971122e-08
177    -1.3073517e-09
178    2.4885611e-08
179    -1.2580877e-07
180    5.47565838e-07
181    -6.76045132e-06
182    -2.74317028e-05
183    1.87386017e-05
184    1.68710052e-05
185    -1.50299609e-06
186    1.76297975e-15
187    3.90061824e-05
188    -5.54949236e-05
189    -4.88898546e-07
190    -5.7625076e-15
191    1.99783117e-05
192    1.37456018e-05
193    -1.85375497e-05
194    1.40197607e-14
195    0.000192447411
196    -3.78969175e-05
197    0.000212366793
198    -4.12164634e-14
199    -0.00140700233
200    0.0023573424
201    -7.30965123e-05
202    -4.39430773e-14
203    3.99720398e-06
204    -3.74664156e-16
205    -4.45436587e-06
206    -1.22258431e-15
207    3.13055759e-05
208    -1.31202127e-09
209    2.75844395e-08
210    -1.32121474e-07
211    6.02841873e-07
212    -7.2576026e-06
213    -2.95659774e-05
214    2.02004745e-05
215    8.70392911e-06
216    -1.47685081e-05
217    3.01282094e-15
218    4.43122768e-05
219    -2.38004904e-05
220    5.13076838e-05
221    -1.76991382e-15
222    -8.93474694e-06
223    6.90100683e-06
224    -1.95812664e-05
225    1.58495753e-14
226    0.000188591967
227    -6.10489863e-05
228    -1.41026365e-05
229    -3.66647173e-14
230    -0.00192142469
231    0.00037745278
232    -0.000769596387
233    -1.42500843e-14
234    -2.03873991e-05
235    2.08587009e-16
236    -4.11017066e-06
237    2.35598333e-17
238    -2.38272638e-05
239    2.43892212e-11
240    1.32692064e-10
241    1.09766104e-09
242    -9.20566936e-10
243    -5.60480015e-08
244    -1.00032194e-06
245    2.35542878e-07
246    1.3478064e-06
247    5.75187566e-08
248    4.41867682e-16
249    -1.22221516e-07
250    -1.36723754e-05
251    5.0375476e-07
252    5.73621085e-16
253    0.000235308761
254    -0.000143710439
255    7.95001139e-05
256    5.18994105e-15
257    0.00310171191
258    -0.000736742872
259    0.000413742739
260    -5.22547885e-14
261    -0.000119126327
262    -0.000113089397
263    -0.000283687676
264    -2.98044091e-14
265    5.46825769e-06
266    -3.10677393e-16
267    1.28810081e-06
268    -6.439332e-16
269    6.1456568e-07
270    5.49668022e-07
271    2.3995965e-05
272    5.58720912e-05
273    7.73293749e-05
274    -3.51156399e-06
275    2.46940837e-06
276    -1.17750426e-16
[5D]