[Molden Format]
[Atoms] (Angs)
  C      1    6     -0.00714236     -1.70213747     -0.00000000
  H      2    1     -2.06882847     -1.44022412      0.00000000
  H      3    1     -0.12337987     -2.77567521      0.00000000
  H      4    1      0.04651892      1.98813947     -0.00000000
  C      5    6     -1.21953563      0.40211669      0.00000000
  O      6    8     -2.25921553      1.03043814      0.00000000
  C      7    6      1.28797806      0.34644937     -0.00000000
  O      8    8      2.31273661      1.00537216     -0.00000000
  N      9    7      0.03446295      0.97739857     -0.00000000
  N     10    7     -1.17287765     -0.98229824      0.00000000
  C     11    6      1.20107039     -1.10433419     -0.00000000
  H     12    1      2.11220096     -1.67699125     -0.00000000
[GTO]
1    0
S    1    1.000000
   4.56324000E+03    1.96665000E-03 
S    1    1.000000
   6.82024000E+02    1.52306000E-02 
S    1    1.000000
   1.54973000E+02    7.61269000E-02 
S    1    1.000000
   4.44553000E+01    2.60801000E-01 
S    1    1.000000
   1.30290000E+01    6.16462000E-01 
S    1    1.000000
   1.82773000E+00    2.21006000E-01 
SP   3    1.000000
   2.09642000E+01    1.14660000E-01   4.02487000E-02 
   4.80331000E+00    9.19999000E-01   2.37594000E-01 
   1.45933000E+00   -3.03068000E-03   8.15854000E-01 
SP   1    1.000000
   4.83456000E-01    1.00000000E+00   1.00000000E+00 
SP   1    1.000000
   1.45585000E-01    1.00000000E+00   1.00000000E+00 
SP   1    1.000000
   4.38000000E-02    1.00000000E+00   1.00000000E+00 
SP   1    1.000000
   1.31927711E-02    1.00000000E+00   1.00000000E+00 
D    1    1.000000
   6.26000000E-01    1.00000000E+00 

2    0
S    3    1.000000
   3.38650000E+01    2.54938000E-02 
   5.09479000E+00    1.90373000E-01 
   1.15879000E+00    8.52161000E-01 
S    1    1.000000
   3.25840000E-01    1.00000000E+00 
S    1    1.000000
   1.02741000E-01    1.00000000E+00 
S    1    1.000000
   3.60000000E-02    1.00000000E+00 
P    1    1.000000
   7.50000000E-01    1.00000000E+00 

3    0
S    3    1.000000
   3.38650000E+01    2.54938000E-02 
   5.09479000E+00    1.90373000E-01 
   1.15879000E+00    8.52161000E-01 
S    1    1.000000
   3.25840000E-01    1.00000000E+00 
S    1    1.000000
   1.02741000E-01    1.00000000E+00 
S    1    1.000000
   3.60000000E-02    1.00000000E+00 
P    1    1.000000
   7.50000000E-01    1.00000000E+00 

4    0
S    3    1.000000
   3.38650000E+01    2.54938000E-02 
   5.09479000E+00    1.90373000E-01 
   1.15879000E+00    8.52161000E-01 
S    1    1.000000
   3.25840000E-01    1.00000000E+00 
S    1    1.000000
   1.02741000E-01    1.00000000E+00 
S    1    1.000000
   3.60000000E-02    1.00000000E+00 
P    1    1.000000
   7.50000000E-01    1.00000000E+00 

5    0
S    1    1.000000
   4.56324000E+03    1.96665000E-03 
S    1    1.000000
   6.82024000E+02    1.52306000E-02 
S    1    1.000000
   1.54973000E+02    7.61269000E-02 
S    1    1.000000
   4.44553000E+01    2.60801000E-01 
S    1    1.000000
   1.30290000E+01    6.16462000E-01 
S    1    1.000000
   1.82773000E+00    2.21006000E-01 
SP   3    1.000000
   2.09642000E+01    1.14660000E-01   4.02487000E-02 
   4.80331000E+00    9.19999000E-01   2.37594000E-01 
   1.45933000E+00   -3.03068000E-03   8.15854000E-01 
SP   1    1.000000
   4.83456000E-01    1.00000000E+00   1.00000000E+00 
SP   1    1.000000
   1.45585000E-01    1.00000000E+00   1.00000000E+00 
SP   1    1.000000
   4.38000000E-02    1.00000000E+00   1.00000000E+00 
SP   1    1.000000
   1.31927711E-02    1.00000000E+00   1.00000000E+00 
D    1    1.000000
   6.26000000E-01    1.00000000E+00 

6    0
S    1    1.000000
   8.58850000E+03    1.89515000E-03 
S    1    1.000000
   1.29723000E+03    1.43859000E-02 
S    1    1.000000
   2.99296000E+02    7.07320000E-02 
S    1    1.000000
   8.73771000E+01    2.40001000E-01 
S    1    1.000000
   2.56789000E+01    5.94797000E-01 
S    1    1.000000
   3.74004000E+00    2.80802000E-01 
SP   3    1.000000
   4.21175000E+01    1.13889000E-01   3.65114000E-02 
   9.62837000E+00    9.20811000E-01   2.37153000E-01 
   2.85332000E+00   -3.27447000E-03   8.19702000E-01 
SP   1    1.000000
   9.05661000E-01    1.00000000E+00   1.00000000E+00 
SP   1    1.000000
   2.55611000E-01    1.00000000E+00   1.00000000E+00 
SP   1    1.000000
   8.45000000E-02    1.00000000E+00   1.00000000E+00 
SP   1    1.000000
   2.54518072E-02    1.00000000E+00   1.00000000E+00 
D    1    1.000000
   1.29200000E+00    1.00000000E+00 

7    0
S    1    1.000000
   4.56324000E+03    1.96665000E-03 
S    1    1.000000
   6.82024000E+02    1.52306000E-02 
S    1    1.000000
   1.54973000E+02    7.61269000E-02 
S    1    1.000000
   4.44553000E+01    2.60801000E-01 
S    1    1.000000
   1.30290000E+01    6.16462000E-01 
S    1    1.000000
   1.82773000E+00    2.21006000E-01 
SP   3    1.000000
   2.09642000E+01    1.14660000E-01   4.02487000E-02 
   4.80331000E+00    9.19999000E-01   2.37594000E-01 
   1.45933000E+00   -3.03068000E-03   8.15854000E-01 
SP   1    1.000000
   4.83456000E-01    1.00000000E+00   1.00000000E+00 
SP   1    1.000000
   1.45585000E-01    1.00000000E+00   1.00000000E+00 
SP   1    1.000000
   4.38000000E-02    1.00000000E+00   1.00000000E+00 
SP   1    1.000000
   1.31927711E-02    1.00000000E+00   1.00000000E+00 
D    1    1.000000
   6.26000000E-01    1.00000000E+00 

8    0
S    1    1.000000
   8.58850000E+03    1.89515000E-03 
S    1    1.000000
   1.29723000E+03    1.43859000E-02 
S    1    1.000000
   2.99296000E+02    7.07320000E-02 
S    1    1.000000
   8.73771000E+01    2.40001000E-01 
S    1    1.000000
   2.56789000E+01    5.94797000E-01 
S    1    1.000000
   3.74004000E+00    2.80802000E-01 
SP   3    1.000000
   4.21175000E+01    1.13889000E-01   3.65114000E-02 
   9.62837000E+00    9.20811000E-01   2.37153000E-01 
   2.85332000E+00   -3.27447000E-03   8.19702000E-01 
SP   1    1.000000
   9.05661000E-01    1.00000000E+00   1.00000000E+00 
SP   1    1.000000
   2.55611000E-01    1.00000000E+00   1.00000000E+00 
SP   1    1.000000
   8.45000000E-02    1.00000000E+00   1.00000000E+00 
SP   1    1.000000
   2.54518072E-02    1.00000000E+00   1.00000000E+00 
D    1    1.000000
   1.29200000E+00    1.00000000E+00 

9    0
S    1    1.000000
   6.29348000E+03    1.96979000E-03 
S    1    1.000000
   9.49044000E+02    1.49613000E-02 
S    1    1.000000
   2.18776000E+02    7.35006000E-02 
S    1    1.000000
   6.36916000E+01    2.48937000E-01 
S    1    1.000000
   1.88282000E+01    6.02460000E-01 
S    1    1.000000
   2.72023000E+00    2.56202000E-01 
SP   3    1.000000
   3.06331000E+01    1.11906000E-01   3.83119000E-02 
   7.02614000E+00    9.21666000E-01   2.37403000E-01 
   2.11205000E+00   -2.56919000E-03   8.17592000E-01 
SP   1    1.000000
   6.84009000E-01    1.00000000E+00   1.00000000E+00 
SP   1    1.000000
   2.00878000E-01    1.00000000E+00   1.00000000E+00 
SP   1    1.000000
   6.39000000E-02    1.00000000E+00   1.00000000E+00 
SP   1    1.000000
   1.92469880E-02    1.00000000E+00   1.00000000E+00 
D    1    1.000000
   9.13000000E-01    1.00000000E+00 

10    0
S    1    1.000000
   6.29348000E+03    1.96979000E-03 
S    1    1.000000
   9.49044000E+02    1.49613000E-02 
S    1    1.000000
   2.18776000E+02    7.35006000E-02 
S    1    1.000000
   6.36916000E+01    2.48937000E-01 
S    1    1.000000
   1.88282000E+01    6.02460000E-01 
S    1    1.000000
   2.72023000E+00    2.56202000E-01 
SP   3    1.000000
   3.06331000E+01    1.11906000E-01   3.83119000E-02 
   7.02614000E+00    9.21666000E-01   2.37403000E-01 
   2.11205000E+00   -2.56919000E-03   8.17592000E-01 
SP   1    1.000000
   6.84009000E-01    1.00000000E+00   1.00000000E+00 
SP   1    1.000000
   2.00878000E-01    1.00000000E+00   1.00000000E+00 
SP   1    1.000000
   6.39000000E-02    1.00000000E+00   1.00000000E+00 
SP   1    1.000000
   1.92469880E-02    1.00000000E+00   1.00000000E+00 
D    1    1.000000
   9.13000000E-01    1.00000000E+00 

11    0
S    1    1.000000
   4.56324000E+03    1.96665000E-03 
S    1    1.000000
   6.82024000E+02    1.52306000E-02 
S    1    1.000000
   1.54973000E+02    7.61269000E-02 
S    1    1.000000
   4.44553000E+01    2.60801000E-01 
S    1    1.000000
   1.30290000E+01    6.16462000E-01 
S    1    1.000000
   1.82773000E+00    2.21006000E-01 
SP   3    1.000000
   2.09642000E+01    1.14660000E-01   4.02487000E-02 
   4.80331000E+00    9.19999000E-01   2.37594000E-01 
   1.45933000E+00   -3.03068000E-03   8.15854000E-01 
SP   1    1.000000
   4.83456000E-01    1.00000000E+00   1.00000000E+00 
SP   1    1.000000
   1.45585000E-01    1.00000000E+00   1.00000000E+00 
SP   1    1.000000
   4.38000000E-02    1.00000000E+00   1.00000000E+00 
SP   1    1.000000
   1.31927711E-02    1.00000000E+00   1.00000000E+00 
D    1    1.000000
   6.26000000E-01    1.00000000E+00 

12    0
S    3    1.000000
   3.38650000E+01    2.54938000E-02 
   5.09479000E+00    1.90373000E-01 
   1.15879000E+00    8.52161000E-01 
S    1    1.000000
   3.25840000E-01    1.00000000E+00 
S    1    1.000000
   1.02741000E-01    1.00000000E+00 
S    1    1.000000
   3.60000000E-02    1.00000000E+00 
P    1    1.000000
   7.50000000E-01    1.00000000E+00 

[MO]
Sym=X
Ene=0.952172
Spin=Alpha
Occup=1
1    8.1156956e-10
2    -1.71615685e-09
3    5.00799281e-08
4    -5.90168958e-08
5    1.66777667e-06
6    6.64989632e-06
7    -3.33086157e-06
8    -1.62106441e-06
9    6.17660843e-07
10    -7.76235403e-16
11    -1.94418677e-05
12    1.66785019e-05
13    -5.42463792e-06
14    -2.53451836e-15
15    0.00014946032
16    2.6592071e-05
17    0.0001484711
18    5.99526062e-16
19    0.00288112231
20    -5.53526879e-06
21    0.00121472325
22    -4.83746415e-14
23    0.000315022875
24    0.000236474094
25    -0.000201675793
26    -9.32578847e-15
27    7.61157701e-06
28    1.04504769e-16
29    -2.7152965e-06
30    4.37285922e-16
31    4.78264438e-06
32    -6.87854488e-06
33    1.15096818e-05
34    2.50943486e-05
35    -9.53876623e-05
36    -3.36436455e-06
37    8.15598584e-06
38    -1.05965043e-15
39    -1.26391667e-06
40    1.95991787e-05
41    0.000111661654
42    0.000764743251
43    1.12507734e-06
44    3.57555333e-06
45    -2.58265342e-16
46    -5.55147493e-06
47    -9.54604182e-07
48    9.75657959e-05
49    -0.000125574518
50    -8.55262577e-06
51    -4.54464391e-07
52    3.14301773e-16
53    8.93202886e-09
54    1.29004102e-07
55    2.7647794e-07
56    3.22628596e-06
57    7.12087104e-06
58    0.000120335407
59    1.4458362e-05
60    3.51001514e-05
61    -2.16320234e-05
62    -2.46148518e-15
63    -0.000446168994
64    0.000453437646
65    -0.000272765914
66    9.87347221e-16
67    0.000890624773
68    -0.000469309139
69    0.000285848199
70    -6.32413498e-15
71    0.00214892594
72    -0.0027045381
73    0.00173893145
74    -4.94800673e-14
75    -0.00139353729
76    -0.000107692851
77    -0.000232126257
78    -5.71391066e-15
79    0.00024392648
80    6.14512628e-16
81    8.00368075e-05
82    1.09915097e-15
83    -0.000127608085
84    -0.00104384945
85    -0.00794069132
86    -0.0389355535
87    -0.13250963
88    -0.327964777
89    -0.155520535
90    -0.471287984
91    -0.00159310069
92    0.000975079074
93    -9.90905112e-16
94    -0.00493927441
95    0.000742637606
96    -0.000452855165
97    -7.10146794e-16
98    0.000586078661
99    -0.000409147644
100    0.000250306262
101    -5.11227964e-15
102    -0.00323890207
103    -0.000235873772
104    0.000142274848
105    5.64968386e-15
106    -0.00755091764
107    -0.001396579
108    0.000692634723
109    -4.63637919e-15
110    -8.60932149e-05
111    7.73365749e-16
112    7.52545749e-05
113    -1.85280605e-16
114    4.74858861e-05
115    8.07366371e-10
116    -1.97356327e-09
117    5.04227619e-08
118    -6.58196673e-08
119    1.66734629e-06
120    6.44696695e-06
121    -3.32122309e-06
122    -2.02620737e-06
123    -5.44797744e-07
124    1.89029814e-15
125    -1.6432709e-05
126    1.13424368e-05
127    -2.56824511e-06
128    -1.0072495e-15
129    -6.10262612e-05
130    -0.000236998943
131    -0.00015754566
132    9.57136984e-15
133    0.00186115769
134    -0.00111942458
135    -0.000399382945
136    -6.86142541e-14
137    0.000408308427
138    -0.000173877809
139    0.00025296214
140    -4.49749811e-14
141    -3.80110831e-06
142    9.11755933e-16
143    5.05067748e-07
144    1.14132936e-15
145    -5.55135596e-06
146    2.96157293e-08
147    2.20941873e-07
148    1.11459867e-06
149    3.67399747e-06
150    1.01554911e-05
151    8.06113672e-06
152    1.09693175e-05
153    -1.7148832e-06
154    1.65427891e-07
155    7.18965304e-16
156    -1.13618831e-05
157    5.56875168e-06
158    2.92780854e-07
159    2.906e-15
160    9.26249022e-05
161    -5.60671194e-05
162    -2.41271982e-05
163    -1.10627946e-15
164    0.000455612235
165    -4.2286965e-05
166    -7.21768053e-05
167    9.35747206e-15
168    0.00238354224
169    -0.000383215471
170    -7.94028122e-05
171    1.52362933e-14
172    1.60879482e-06
173    1.66489684e-16
174    -1.27069168e-06
175    5.21565189e-17
176    4.43328916e-07
177    1.31346277e-09
178    -2.50754533e-08
179    1.26553155e-07
180    -5.5163215e-07
181    6.80580938e-06
182    2.76189332e-05
183    -1.88707608e-05
184    -1.67366271e-05
185    1.49289314e-06
186    -1.76896379e-15
187    -3.91942938e-05
188    5.50537516e-05
189    5.56190909e-07
190    5.76612246e-15
191    -2.09345055e-05
192    -1.33706652e-05
193    1.898302e-05
194    -1.40725938e-14
195    -0.000191330547
196    3.86617881e-05
197    -0.000213128518
198    4.14521696e-14
199    0.00142393233
200    -0.00233543267
201    7.26648905e-05
202    4.41595377e-14
203    -3.90121385e-06
204    3.6978236e-16
205    4.50326182e-06
206    1.22062708e-15
207    -3.15271849e-05
208    1.31337577e-09
209    -2.76141369e-08
210    1.32264687e-07
211    -6.03488305e-07
212    7.26507903e-06
213    2.95954697e-05
214    -2.02194173e-05
215    -8.70020407e-06
216    1.47644717e-05
217    -3.01557922e-15
218    -4.43339845e-05
219    2.37695067e-05
220    -5.12889292e-05
221    1.79696056e-15
222    8.01993478e-06
223    -7.65439097e-06
224    1.93279487e-05
225    -1.58932107e-14
226    -0.000193783102
227    5.91088095e-05
228    1.38488623e-05
229    3.69101836e-14
230    0.00192128928
231    -0.000379453417
232    0.000770566705
233    1.41747289e-14
234    2.04191997e-05
235    -2.09226541e-16
236    4.10655768e-06
237    -2.5425066e-17
238    2.38389934e-05
239    -3.52140308e-11
240    -2.77154646e-10
241    -1.40362174e-09
242    -1.74134444e-09
243    6.64746612e-08
244    1.08058738e-06
245    -2.91205947e-07
246    -1.2864574e-06
247    5.02877322e-08
248    -4.49328705e-16
249    6.25548346e-08
250    1.35076774e-05
251    -1.05205309e-06
252    -5.42856919e-16
253    -0.000236702119
254    0.000144732048
255    -7.9334998e-05
256    -5.27470394e-15
257    -0.00307475904
258    0.00072354099
259    -0.000413183796
260    5.28444372e-14
261    0.000115269718
262    0.000110689409
263    0.000282340517
264    2.8858095e-14
265    -5.77677824e-06
266    3.09104619e-16
267    -1.28830638e-06
268    6.45484029e-16
269    -3.06650405e-07
270    -5.93872973e-07
271    -2.44123408e-05
272    -5.53375381e-05
273    -6.98755417e-05
274    3.62593029e-06
275    -2.51637537e-06
276    1.18823693e-16
[5D]