[Molden Format]
[Atoms] (Angs)
  C      1    6     -0.00714236     -1.70213747     -0.00000000
  H      2    1     -2.06882847     -1.44022412      0.00000000
  H      3    1     -0.12337987     -2.77567521      0.00000000
  H      4    1      0.04651892      1.98813947     -0.00000000
  C      5    6     -1.21953563      0.40211669      0.00000000
  O      6    8     -2.25921553      1.03043814      0.00000000
  C      7    6      1.28797806      0.34644937     -0.00000000
  O      8    8      2.31273661      1.00537216     -0.00000000
  N      9    7      0.03446295      0.97739857     -0.00000000
  N     10    7     -1.17287765     -0.98229824      0.00000000
  C     11    6      1.20107039     -1.10433419     -0.00000000
  H     12    1      2.11220096     -1.67699125     -0.00000000
[GTO]
1    0
S    1    1.000000
   4.56324000E+03    1.96665000E-03 
S    1    1.000000
   6.82024000E+02    1.52306000E-02 
S    1    1.000000
   1.54973000E+02    7.61269000E-02 
S    1    1.000000
   4.44553000E+01    2.60801000E-01 
S    1    1.000000
   1.30290000E+01    6.16462000E-01 
S    1    1.000000
   1.82773000E+00    2.21006000E-01 
SP   3    1.000000
   2.09642000E+01    1.14660000E-01   4.02487000E-02 
   4.80331000E+00    9.19999000E-01   2.37594000E-01 
   1.45933000E+00   -3.03068000E-03   8.15854000E-01 
SP   1    1.000000
   4.83456000E-01    1.00000000E+00   1.00000000E+00 
SP   1    1.000000
   1.45585000E-01    1.00000000E+00   1.00000000E+00 
SP   1    1.000000
   4.38000000E-02    1.00000000E+00   1.00000000E+00 
SP   1    1.000000
   1.31927711E-02    1.00000000E+00   1.00000000E+00 
D    1    1.000000
   6.26000000E-01    1.00000000E+00 

2    0
S    3    1.000000
   3.38650000E+01    2.54938000E-02 
   5.09479000E+00    1.90373000E-01 
   1.15879000E+00    8.52161000E-01 
S    1    1.000000
   3.25840000E-01    1.00000000E+00 
S    1    1.000000
   1.02741000E-01    1.00000000E+00 
S    1    1.000000
   3.60000000E-02    1.00000000E+00 
P    1    1.000000
   7.50000000E-01    1.00000000E+00 

3    0
S    3    1.000000
   3.38650000E+01    2.54938000E-02 
   5.09479000E+00    1.90373000E-01 
   1.15879000E+00    8.52161000E-01 
S    1    1.000000
   3.25840000E-01    1.00000000E+00 
S    1    1.000000
   1.02741000E-01    1.00000000E+00 
S    1    1.000000
   3.60000000E-02    1.00000000E+00 
P    1    1.000000
   7.50000000E-01    1.00000000E+00 

4    0
S    3    1.000000
   3.38650000E+01    2.54938000E-02 
   5.09479000E+00    1.90373000E-01 
   1.15879000E+00    8.52161000E-01 
S    1    1.000000
   3.25840000E-01    1.00000000E+00 
S    1    1.000000
   1.02741000E-01    1.00000000E+00 
S    1    1.000000
   3.60000000E-02    1.00000000E+00 
P    1    1.000000
   7.50000000E-01    1.00000000E+00 

5    0
S    1    1.000000
   4.56324000E+03    1.96665000E-03 
S    1    1.000000
   6.82024000E+02    1.52306000E-02 
S    1    1.000000
   1.54973000E+02    7.61269000E-02 
S    1    1.000000
   4.44553000E+01    2.60801000E-01 
S    1    1.000000
   1.30290000E+01    6.16462000E-01 
S    1    1.000000
   1.82773000E+00    2.21006000E-01 
SP   3    1.000000
   2.09642000E+01    1.14660000E-01   4.02487000E-02 
   4.80331000E+00    9.19999000E-01   2.37594000E-01 
   1.45933000E+00   -3.03068000E-03   8.15854000E-01 
SP   1    1.000000
   4.83456000E-01    1.00000000E+00   1.00000000E+00 
SP   1    1.000000
   1.45585000E-01    1.00000000E+00   1.00000000E+00 
SP   1    1.000000
   4.38000000E-02    1.00000000E+00   1.00000000E+00 
SP   1    1.000000
   1.31927711E-02    1.00000000E+00   1.00000000E+00 
D    1    1.000000
   6.26000000E-01    1.00000000E+00 

6    0
S    1    1.000000
   8.58850000E+03    1.89515000E-03 
S    1    1.000000
   1.29723000E+03    1.43859000E-02 
S    1    1.000000
   2.99296000E+02    7.07320000E-02 
S    1    1.000000
   8.73771000E+01    2.40001000E-01 
S    1    1.000000
   2.56789000E+01    5.94797000E-01 
S    1    1.000000
   3.74004000E+00    2.80802000E-01 
SP   3    1.000000
   4.21175000E+01    1.13889000E-01   3.65114000E-02 
   9.62837000E+00    9.20811000E-01   2.37153000E-01 
   2.85332000E+00   -3.27447000E-03   8.19702000E-01 
SP   1    1.000000
   9.05661000E-01    1.00000000E+00   1.00000000E+00 
SP   1    1.000000
   2.55611000E-01    1.00000000E+00   1.00000000E+00 
SP   1    1.000000
   8.45000000E-02    1.00000000E+00   1.00000000E+00 
SP   1    1.000000
   2.54518072E-02    1.00000000E+00   1.00000000E+00 
D    1    1.000000
   1.29200000E+00    1.00000000E+00 

7    0
S    1    1.000000
   4.56324000E+03    1.96665000E-03 
S    1    1.000000
   6.82024000E+02    1.52306000E-02 
S    1    1.000000
   1.54973000E+02    7.61269000E-02 
S    1    1.000000
   4.44553000E+01    2.60801000E-01 
S    1    1.000000
   1.30290000E+01    6.16462000E-01 
S    1    1.000000
   1.82773000E+00    2.21006000E-01 
SP   3    1.000000
   2.09642000E+01    1.14660000E-01   4.02487000E-02 
   4.80331000E+00    9.19999000E-01   2.37594000E-01 
   1.45933000E+00   -3.03068000E-03   8.15854000E-01 
SP   1    1.000000
   4.83456000E-01    1.00000000E+00   1.00000000E+00 
SP   1    1.000000
   1.45585000E-01    1.00000000E+00   1.00000000E+00 
SP   1    1.000000
   4.38000000E-02    1.00000000E+00   1.00000000E+00 
SP   1    1.000000
   1.31927711E-02    1.00000000E+00   1.00000000E+00 
D    1    1.000000
   6.26000000E-01    1.00000000E+00 

8    0
S    1    1.000000
   8.58850000E+03    1.89515000E-03 
S    1    1.000000
   1.29723000E+03    1.43859000E-02 
S    1    1.000000
   2.99296000E+02    7.07320000E-02 
S    1    1.000000
   8.73771000E+01    2.40001000E-01 
S    1    1.000000
   2.56789000E+01    5.94797000E-01 
S    1    1.000000
   3.74004000E+00    2.80802000E-01 
SP   3    1.000000
   4.21175000E+01    1.13889000E-01   3.65114000E-02 
   9.62837000E+00    9.20811000E-01   2.37153000E-01 
   2.85332000E+00   -3.27447000E-03   8.19702000E-01 
SP   1    1.000000
   9.05661000E-01    1.00000000E+00   1.00000000E+00 
SP   1    1.000000
   2.55611000E-01    1.00000000E+00   1.00000000E+00 
SP   1    1.000000
   8.45000000E-02    1.00000000E+00   1.00000000E+00 
SP   1    1.000000
   2.54518072E-02    1.00000000E+00   1.00000000E+00 
D    1    1.000000
   1.29200000E+00    1.00000000E+00 

9    0
S    1    1.000000
   6.29348000E+03    1.96979000E-03 
S    1    1.000000
   9.49044000E+02    1.49613000E-02 
S    1    1.000000
   2.18776000E+02    7.35006000E-02 
S    1    1.000000
   6.36916000E+01    2.48937000E-01 
S    1    1.000000
   1.88282000E+01    6.02460000E-01 
S    1    1.000000
   2.72023000E+00    2.56202000E-01 
SP   3    1.000000
   3.06331000E+01    1.11906000E-01   3.83119000E-02 
   7.02614000E+00    9.21666000E-01   2.37403000E-01 
   2.11205000E+00   -2.56919000E-03   8.17592000E-01 
SP   1    1.000000
   6.84009000E-01    1.00000000E+00   1.00000000E+00 
SP   1    1.000000
   2.00878000E-01    1.00000000E+00   1.00000000E+00 
SP   1    1.000000
   6.39000000E-02    1.00000000E+00   1.00000000E+00 
SP   1    1.000000
   1.92469880E-02    1.00000000E+00   1.00000000E+00 
D    1    1.000000
   9.13000000E-01    1.00000000E+00 

10    0
S    1    1.000000
   6.29348000E+03    1.96979000E-03 
S    1    1.000000
   9.49044000E+02    1.49613000E-02 
S    1    1.000000
   2.18776000E+02    7.35006000E-02 
S    1    1.000000
   6.36916000E+01    2.48937000E-01 
S    1    1.000000
   1.88282000E+01    6.02460000E-01 
S    1    1.000000
   2.72023000E+00    2.56202000E-01 
SP   3    1.000000
   3.06331000E+01    1.11906000E-01   3.83119000E-02 
   7.02614000E+00    9.21666000E-01   2.37403000E-01 
   2.11205000E+00   -2.56919000E-03   8.17592000E-01 
SP   1    1.000000
   6.84009000E-01    1.00000000E+00   1.00000000E+00 
SP   1    1.000000
   2.00878000E-01    1.00000000E+00   1.00000000E+00 
SP   1    1.000000
   6.39000000E-02    1.00000000E+00   1.00000000E+00 
SP   1    1.000000
   1.92469880E-02    1.00000000E+00   1.00000000E+00 
D    1    1.000000
   9.13000000E-01    1.00000000E+00 

11    0
S    1    1.000000
   4.56324000E+03    1.96665000E-03 
S    1    1.000000
   6.82024000E+02    1.52306000E-02 
S    1    1.000000
   1.54973000E+02    7.61269000E-02 
S    1    1.000000
   4.44553000E+01    2.60801000E-01 
S    1    1.000000
   1.30290000E+01    6.16462000E-01 
S    1    1.000000
   1.82773000E+00    2.21006000E-01 
SP   3    1.000000
   2.09642000E+01    1.14660000E-01   4.02487000E-02 
   4.80331000E+00    9.19999000E-01   2.37594000E-01 
   1.45933000E+00   -3.03068000E-03   8.15854000E-01 
SP   1    1.000000
   4.83456000E-01    1.00000000E+00   1.00000000E+00 
SP   1    1.000000
   1.45585000E-01    1.00000000E+00   1.00000000E+00 
SP   1    1.000000
   4.38000000E-02    1.00000000E+00   1.00000000E+00 
SP   1    1.000000
   1.31927711E-02    1.00000000E+00   1.00000000E+00 
D    1    1.000000
   6.26000000E-01    1.00000000E+00 

12    0
S    3    1.000000
   3.38650000E+01    2.54938000E-02 
   5.09479000E+00    1.90373000E-01 
   1.15879000E+00    8.52161000E-01 
S    1    1.000000
   3.25840000E-01    1.00000000E+00 
S    1    1.000000
   1.02741000E-01    1.00000000E+00 
S    1    1.000000
   3.60000000E-02    1.00000000E+00 
P    1    1.000000
   7.50000000E-01    1.00000000E+00 

[MO]
Sym=X
Ene=0.050137
Spin=Alpha
Occup=1
1    1.69286562e-09
2    -1.15898115e-08
3    1.22100138e-07
4    -2.98420614e-07
5    4.76212766e-06
6    1.86036917e-05
7    -1.06950173e-05
8    9.79237801e-07
9    2.4504971e-06
10    6.91094269e-17
11    -4.97144797e-05
12    -1.37406155e-05
13    -1.53488627e-05
14    8.38870945e-16
15    0.000334597833
16    2.98560879e-05
17    0.0002002945
18    5.08101826e-15
19    -0.00206733819
20    -0.000440773458
21    0.000231401508
22    -4.94889194e-14
23    -0.00066625022
24    -0.000276542546
25    -4.80910475e-05
26    1.07348798e-13
27    -1.4148038e-05
28    1.33424775e-17
29    -3.57162993e-06
30    1.50809952e-16
31    7.91096037e-06
32    -3.55176042e-07
33    -2.50785112e-05
34    7.4314575e-06
35    -0.000122418787
36    -7.90283475e-07
37    -1.90368125e-06
38    2.33135718e-16
39    1.49545197e-06
40    7.41579541e-06
41    0.000162192455
42    0.000299838562
43    -3.05114019e-06
44    3.1374951e-06
45    -1.57393069e-16
46    -7.159176e-06
47    3.45104017e-08
48    -7.503932e-06
49    -0.000118661767
50    5.13483081e-06
51    1.0435211e-06
52    5.31781546e-17
53    9.16208693e-10
54    -2.00233637e-09
55    5.66720771e-08
56    -6.88010444e-08
57    1.87625482e-06
58    7.36460849e-06
59    -3.73993705e-06
60    6.03045266e-07
61    -5.97475532e-07
62    -8.10850424e-16
63    -2.11030911e-05
64    -5.11089009e-06
65    -2.4780632e-06
66    2.84255144e-15
67    4.57198653e-05
68    0.000266359736
69    -0.000111046273
70    -3.51633304e-15
71    0.000984697465
72    0.00115175762
73    -0.000125353144
74    -1.82342623e-14
75    0.00107113404
76    0.00024516881
77    0.000437095094
78    -5.26042553e-14
79    3.12382343e-06
80    -4.9548878e-16
81    -1.4934675e-06
82    -3.41457152e-16
83    -5.00826267e-06
84    -2.92450539e-08
85    -2.25414834e-07
86    -1.08414547e-06
87    -3.77024454e-06
88    -8.60865133e-06
89    -1.83775903e-06
90    -1.48563317e-05
91    1.7567409e-06
92    6.15848217e-07
93    6.25810471e-16
94    -8.71966304e-06
95    -5.83639616e-06
96    -1.2401863e-06
97    -1.45101121e-15
98    7.75431948e-05
99    4.96455845e-05
100    -1.93573525e-05
101    4.88774574e-15
102    0.000452374383
103    2.5644952e-05
104    -8.50729228e-05
105    -6.23844418e-15
106    0.00248914261
107    0.000389169465
108    -8.59016704e-05
109    2.06964031e-14
110    -1.70174439e-06
111    -5.74952728e-17
112    -1.12009111e-06
113    -3.33583309e-16
114    6.64333818e-08
115    7.87195785e-09
116    1.20478923e-07
117    2.34444476e-07
118    3.05081507e-06
119    6.34086174e-06
120    0.000112877797
121    1.47010901e-05
122    -3.22211442e-05
123    -2.49242123e-05
124    4.46455815e-16
125    -0.000416069269
126    -0.000433489628
127    -0.000287156206
128    -3.15465517e-15
129    0.00080380102
130    0.000327015367
131    0.000212190507
132    3.99307869e-15
133    0.000396498764
134    0.00317675529
135    0.00166094787
136    -7.29937104e-14
137    -0.000189945861
138    0.000439866854
139    -0.000744585791
140    6.41062039e-14
141    -0.000248846934
142    -5.74086535e-16
143    7.36603077e-05
144    -3.97979327e-16
145    -0.000112529806
146    -0.00104385846
147    -0.00794076078
148    -0.0389358877
149    -0.132510477
150    -0.327965298
151    -0.155500082
152    -0.471306909
153    0.00155769797
154    0.000937586981
155    -1.08711605e-15
156    -0.00493804623
157    -0.000723774019
158    -0.00043426097
159    5.65827446e-16
160    0.000639090882
161    0.000388898269
162    0.000223590313
163    -6.57349573e-15
164    -0.00302016047
165    0.000151001803
166    0.000147232848
167    1.35296421e-14
168    -0.00642950465
169    0.00119545402
170    0.000375795558
171    4.19033821e-15
172    9.17404897e-05
173    -6.04614442e-17
174    0.000107304865
175    1.79870984e-16
176    4.55158903e-05
177    7.82155003e-10
178    -2.43589175e-08
179    9.54034487e-08
180    -5.21697357e-07
181    5.81679013e-06
182    2.40125699e-05
183    -1.69520111e-05
184    1.73760793e-05
185    -1.30729752e-06
186    -7.64022703e-16
187    -2.40811271e-05
188    -5.70472184e-05
189    8.66671154e-06
190    4.43299268e-16
191    -0.00012309943
192    4.83527351e-05
193    5.73135759e-05
194    -6.75155486e-15
195    0.00014462153
196    9.83836257e-05
197    -9.73011956e-05
198    3.0203714e-14
199    0.00217546314
200    0.00283156389
201    -5.5885281e-05
202    2.7713883e-14
203    1.23809735e-05
204    -6.30327782e-16
205    6.28149163e-06
206    -2.56875995e-16
207    -2.84261856e-05
208    1.69394712e-10
209    -3.71855887e-09
210    1.79358335e-08
211    -8.09335827e-08
212    9.349445e-07
213    3.68444385e-06
214    -2.36180653e-06
215    5.13643438e-07
216    -5.77293072e-07
217    -3.43627888e-16
218    -2.62438849e-06
219    -4.08370231e-06
220    2.61511553e-06
221    3.47729388e-15
222    -0.000117880878
223    -9.70242374e-05
224    -3.27084181e-05
225    -5.55959823e-15
226    -0.000667990573
227    -0.000250170741
228    -3.27459641e-05
229    3.14786782e-14
230    -2.49012191e-05
231    -0.000256257154
232    0.000122009341
233    -9.76259202e-15
234    4.01742082e-06
235    -8.15750541e-17
236    -4.81378246e-07
237    -2.4018802e-16
238    1.41852796e-06
239    -1.39435844e-09
240    -1.86091698e-08
241    -3.9409628e-08
242    -3.42911274e-07
243    1.34294585e-06
244    1.03359193e-05
245    -7.16960818e-06
246    7.90821629e-06
247    1.38878663e-05
248    -9.5941478e-16
249    -7.68674251e-06
250    -2.12694883e-05
251    -7.06298925e-05
252    3.96526953e-15
253    -0.000178579136
254    0.00013104594
255    2.15788232e-05
256    -1.08990201e-14
257    0.00348410993
258    -0.00170352736
259    7.36090735e-05
260    7.57557805e-14
261    -0.000497271239
262    -0.000309605655
263    -0.000174642308
264    -1.22019954e-13
265    -3.97224251e-05
266    -2.03810758e-16
267    -2.14819108e-08
268    1.97278506e-16
269    3.96680631e-05
270    -5.6923528e-06
271    -5.35444327e-05
272    6.90780503e-05
273    0.000960503723
274    1.47190482e-05
275    -6.04070896e-06
276    1.37801267e-16
[5D]