[Molden Format]
[Atoms] (Angs)
  C      1    6     -0.00714236     -1.70213747     -0.00000000
  H      2    1     -2.06882847     -1.44022412      0.00000000
  H      3    1     -0.12337987     -2.77567521      0.00000000
  H      4    1      0.04651892      1.98813947     -0.00000000
  C      5    6     -1.21953563      0.40211669      0.00000000
  O      6    8     -2.25921553      1.03043814      0.00000000
  C      7    6      1.28797806      0.34644937     -0.00000000
  O      8    8      2.31273661      1.00537216     -0.00000000
  N      9    7      0.03446295      0.97739857     -0.00000000
  N     10    7     -1.17287765     -0.98229824      0.00000000
  C     11    6      1.20107039     -1.10433419     -0.00000000
  H     12    1      2.11220096     -1.67699125     -0.00000000
[GTO]
1    0
S    1    1.000000
   4.56324000E+03    1.96665000E-03 
S    1    1.000000
   6.82024000E+02    1.52306000E-02 
S    1    1.000000
   1.54973000E+02    7.61269000E-02 
S    1    1.000000
   4.44553000E+01    2.60801000E-01 
S    1    1.000000
   1.30290000E+01    6.16462000E-01 
S    1    1.000000
   1.82773000E+00    2.21006000E-01 
SP   3    1.000000
   2.09642000E+01    1.14660000E-01   4.02487000E-02 
   4.80331000E+00    9.19999000E-01   2.37594000E-01 
   1.45933000E+00   -3.03068000E-03   8.15854000E-01 
SP   1    1.000000
   4.83456000E-01    1.00000000E+00   1.00000000E+00 
SP   1    1.000000
   1.45585000E-01    1.00000000E+00   1.00000000E+00 
SP   1    1.000000
   4.38000000E-02    1.00000000E+00   1.00000000E+00 
SP   1    1.000000
   1.31927711E-02    1.00000000E+00   1.00000000E+00 
D    1    1.000000
   6.26000000E-01    1.00000000E+00 

2    0
S    3    1.000000
   3.38650000E+01    2.54938000E-02 
   5.09479000E+00    1.90373000E-01 
   1.15879000E+00    8.52161000E-01 
S    1    1.000000
   3.25840000E-01    1.00000000E+00 
S    1    1.000000
   1.02741000E-01    1.00000000E+00 
S    1    1.000000
   3.60000000E-02    1.00000000E+00 
P    1    1.000000
   7.50000000E-01    1.00000000E+00 

3    0
S    3    1.000000
   3.38650000E+01    2.54938000E-02 
   5.09479000E+00    1.90373000E-01 
   1.15879000E+00    8.52161000E-01 
S    1    1.000000
   3.25840000E-01    1.00000000E+00 
S    1    1.000000
   1.02741000E-01    1.00000000E+00 
S    1    1.000000
   3.60000000E-02    1.00000000E+00 
P    1    1.000000
   7.50000000E-01    1.00000000E+00 

4    0
S    3    1.000000
   3.38650000E+01    2.54938000E-02 
   5.09479000E+00    1.90373000E-01 
   1.15879000E+00    8.52161000E-01 
S    1    1.000000
   3.25840000E-01    1.00000000E+00 
S    1    1.000000
   1.02741000E-01    1.00000000E+00 
S    1    1.000000
   3.60000000E-02    1.00000000E+00 
P    1    1.000000
   7.50000000E-01    1.00000000E+00 

5    0
S    1    1.000000
   4.56324000E+03    1.96665000E-03 
S    1    1.000000
   6.82024000E+02    1.52306000E-02 
S    1    1.000000
   1.54973000E+02    7.61269000E-02 
S    1    1.000000
   4.44553000E+01    2.60801000E-01 
S    1    1.000000
   1.30290000E+01    6.16462000E-01 
S    1    1.000000
   1.82773000E+00    2.21006000E-01 
SP   3    1.000000
   2.09642000E+01    1.14660000E-01   4.02487000E-02 
   4.80331000E+00    9.19999000E-01   2.37594000E-01 
   1.45933000E+00   -3.03068000E-03   8.15854000E-01 
SP   1    1.000000
   4.83456000E-01    1.00000000E+00   1.00000000E+00 
SP   1    1.000000
   1.45585000E-01    1.00000000E+00   1.00000000E+00 
SP   1    1.000000
   4.38000000E-02    1.00000000E+00   1.00000000E+00 
SP   1    1.000000
   1.31927711E-02    1.00000000E+00   1.00000000E+00 
D    1    1.000000
   6.26000000E-01    1.00000000E+00 

6    0
S    1    1.000000
   8.58850000E+03    1.89515000E-03 
S    1    1.000000
   1.29723000E+03    1.43859000E-02 
S    1    1.000000
   2.99296000E+02    7.07320000E-02 
S    1    1.000000
   8.73771000E+01    2.40001000E-01 
S    1    1.000000
   2.56789000E+01    5.94797000E-01 
S    1    1.000000
   3.74004000E+00    2.80802000E-01 
SP   3    1.000000
   4.21175000E+01    1.13889000E-01   3.65114000E-02 
   9.62837000E+00    9.20811000E-01   2.37153000E-01 
   2.85332000E+00   -3.27447000E-03   8.19702000E-01 
SP   1    1.000000
   9.05661000E-01    1.00000000E+00   1.00000000E+00 
SP   1    1.000000
   2.55611000E-01    1.00000000E+00   1.00000000E+00 
SP   1    1.000000
   8.45000000E-02    1.00000000E+00   1.00000000E+00 
SP   1    1.000000
   2.54518072E-02    1.00000000E+00   1.00000000E+00 
D    1    1.000000
   1.29200000E+00    1.00000000E+00 

7    0
S    1    1.000000
   4.56324000E+03    1.96665000E-03 
S    1    1.000000
   6.82024000E+02    1.52306000E-02 
S    1    1.000000
   1.54973000E+02    7.61269000E-02 
S    1    1.000000
   4.44553000E+01    2.60801000E-01 
S    1    1.000000
   1.30290000E+01    6.16462000E-01 
S    1    1.000000
   1.82773000E+00    2.21006000E-01 
SP   3    1.000000
   2.09642000E+01    1.14660000E-01   4.02487000E-02 
   4.80331000E+00    9.19999000E-01   2.37594000E-01 
   1.45933000E+00   -3.03068000E-03   8.15854000E-01 
SP   1    1.000000
   4.83456000E-01    1.00000000E+00   1.00000000E+00 
SP   1    1.000000
   1.45585000E-01    1.00000000E+00   1.00000000E+00 
SP   1    1.000000
   4.38000000E-02    1.00000000E+00   1.00000000E+00 
SP   1    1.000000
   1.31927711E-02    1.00000000E+00   1.00000000E+00 
D    1    1.000000
   6.26000000E-01    1.00000000E+00 

8    0
S    1    1.000000
   8.58850000E+03    1.89515000E-03 
S    1    1.000000
   1.29723000E+03    1.43859000E-02 
S    1    1.000000
   2.99296000E+02    7.07320000E-02 
S    1    1.000000
   8.73771000E+01    2.40001000E-01 
S    1    1.000000
   2.56789000E+01    5.94797000E-01 
S    1    1.000000
   3.74004000E+00    2.80802000E-01 
SP   3    1.000000
   4.21175000E+01    1.13889000E-01   3.65114000E-02 
   9.62837000E+00    9.20811000E-01   2.37153000E-01 
   2.85332000E+00   -3.27447000E-03   8.19702000E-01 
SP   1    1.000000
   9.05661000E-01    1.00000000E+00   1.00000000E+00 
SP   1    1.000000
   2.55611000E-01    1.00000000E+00   1.00000000E+00 
SP   1    1.000000
   8.45000000E-02    1.00000000E+00   1.00000000E+00 
SP   1    1.000000
   2.54518072E-02    1.00000000E+00   1.00000000E+00 
D    1    1.000000
   1.29200000E+00    1.00000000E+00 

9    0
S    1    1.000000
   6.29348000E+03    1.96979000E-03 
S    1    1.000000
   9.49044000E+02    1.49613000E-02 
S    1    1.000000
   2.18776000E+02    7.35006000E-02 
S    1    1.000000
   6.36916000E+01    2.48937000E-01 
S    1    1.000000
   1.88282000E+01    6.02460000E-01 
S    1    1.000000
   2.72023000E+00    2.56202000E-01 
SP   3    1.000000
   3.06331000E+01    1.11906000E-01   3.83119000E-02 
   7.02614000E+00    9.21666000E-01   2.37403000E-01 
   2.11205000E+00   -2.56919000E-03   8.17592000E-01 
SP   1    1.000000
   6.84009000E-01    1.00000000E+00   1.00000000E+00 
SP   1    1.000000
   2.00878000E-01    1.00000000E+00   1.00000000E+00 
SP   1    1.000000
   6.39000000E-02    1.00000000E+00   1.00000000E+00 
SP   1    1.000000
   1.92469880E-02    1.00000000E+00   1.00000000E+00 
D    1    1.000000
   9.13000000E-01    1.00000000E+00 

10    0
S    1    1.000000
   6.29348000E+03    1.96979000E-03 
S    1    1.000000
   9.49044000E+02    1.49613000E-02 
S    1    1.000000
   2.18776000E+02    7.35006000E-02 
S    1    1.000000
   6.36916000E+01    2.48937000E-01 
S    1    1.000000
   1.88282000E+01    6.02460000E-01 
S    1    1.000000
   2.72023000E+00    2.56202000E-01 
SP   3    1.000000
   3.06331000E+01    1.11906000E-01   3.83119000E-02 
   7.02614000E+00    9.21666000E-01   2.37403000E-01 
   2.11205000E+00   -2.56919000E-03   8.17592000E-01 
SP   1    1.000000
   6.84009000E-01    1.00000000E+00   1.00000000E+00 
SP   1    1.000000
   2.00878000E-01    1.00000000E+00   1.00000000E+00 
SP   1    1.000000
   6.39000000E-02    1.00000000E+00   1.00000000E+00 
SP   1    1.000000
   1.92469880E-02    1.00000000E+00   1.00000000E+00 
D    1    1.000000
   9.13000000E-01    1.00000000E+00 

11    0
S    1    1.000000
   4.56324000E+03    1.96665000E-03 
S    1    1.000000
   6.82024000E+02    1.52306000E-02 
S    1    1.000000
   1.54973000E+02    7.61269000E-02 
S    1    1.000000
   4.44553000E+01    2.60801000E-01 
S    1    1.000000
   1.30290000E+01    6.16462000E-01 
S    1    1.000000
   1.82773000E+00    2.21006000E-01 
SP   3    1.000000
   2.09642000E+01    1.14660000E-01   4.02487000E-02 
   4.80331000E+00    9.19999000E-01   2.37594000E-01 
   1.45933000E+00   -3.03068000E-03   8.15854000E-01 
SP   1    1.000000
   4.83456000E-01    1.00000000E+00   1.00000000E+00 
SP   1    1.000000
   1.45585000E-01    1.00000000E+00   1.00000000E+00 
SP   1    1.000000
   4.38000000E-02    1.00000000E+00   1.00000000E+00 
SP   1    1.000000
   1.31927711E-02    1.00000000E+00   1.00000000E+00 
D    1    1.000000
   6.26000000E-01    1.00000000E+00 

12    0
S    3    1.000000
   3.38650000E+01    2.54938000E-02 
   5.09479000E+00    1.90373000E-01 
   1.15879000E+00    8.52161000E-01 
S    1    1.000000
   3.25840000E-01    1.00000000E+00 
S    1    1.000000
   1.02741000E-01    1.00000000E+00 
S    1    1.000000
   3.60000000E-02    1.00000000E+00 
P    1    1.000000
   7.50000000E-01    1.00000000E+00 

[MO]
Sym=X
Ene=0.025744
Spin=Alpha
Occup=1
1    8.11766326e-10
2    -1.71750399e-09
3    5.00941202e-08
4    -5.90515827e-08
5    1.66833019e-06
6    6.65205869e-06
7    -3.33210469e-06
8    -1.62095058e-06
9    6.17945675e-07
10    -7.76227365e-16
11    -1.94476462e-05
12    1.66769046e-05
13    -5.42642198e-06
14    -2.53442084e-15
15    0.000149499211
16    2.65955412e-05
17    0.00014849438
18    6.00116656e-16
19    0.00288088199
20    -5.58650251e-06
21    0.00121475014
22    -4.83803936e-14
23    0.000314945431
24    0.000236441948
25    -0.000201681382
26    -9.3133106e-15
27    7.60993245e-06
28    1.04506319e-16
29    -2.71571163e-06
30    4.37303448e-16
31    4.78356389e-06
32    -6.87858612e-06
33    1.15067667e-05
34    2.50952122e-05
35    -9.54018912e-05
36    -3.36445639e-06
37    8.15576451e-06
38    -1.05962332e-15
39    -1.26374283e-06
40    1.96000406e-05
41    0.000111680506
42    0.000764778098
43    1.12472268e-06
44    3.57591799e-06
45    -2.58283635e-16
46    -5.55230704e-06
47    -9.54600164e-07
48    9.7564923e-05
49    -0.00012558831
50    -8.55202886e-06
51    -4.54343093e-07
52    3.14307952e-16
53    8.93213529e-09
54    1.29003868e-07
55    2.76484525e-07
56    3.22627794e-06
57    7.12108908e-06
58    0.000120336262
59    1.44579272e-05
60    3.51002212e-05
61    -2.16320927e-05
62    -2.46157942e-15
63    -0.000446171444
64    0.000453437049
65    -0.0002727662
66    9.87677622e-16
67    0.000890630082
68    -0.000469278175
69    0.000285835289
70    -6.32454366e-15
71    0.00214904038
72    -0.00270440421
73    0.00173891687
74    -4.94821864e-14
75    -0.00139341277
76    -0.000107664353
77    -0.000232075449
78    -5.72002514e-15
79    0.000243926842
80    6.1445503e-16
81    8.00366334e-05
82    1.09911127e-15
83    -0.000127608666
84    -0.00104384945
85    -0.00794069129
86    -0.0389355534
87    -0.13250963
88    -0.327964776
89    -0.155520534
90    -0.471287983
91    -0.00159310047
92    0.000975079139
93    -9.90832364e-16
94    -0.00493927539
95    0.000742636923
96    -0.000452855306
97    -7.10315449e-16
98    0.00058608767
99    -0.000409141871
100    0.00025030401
101    -5.11171147e-15
102    -0.00323884946
103    -0.00023587079
104    0.000142264959
105    5.64895869e-15
106    -0.00755062826
107    -0.00139653376
108    0.000692624733
109    -4.63397349e-15
110    -8.60934121e-05
111    7.73359061e-16
112    7.52544442e-05
113    -1.85319378e-16
114    4.74858935e-05
115    8.08281371e-10
116    -1.95955926e-09
117    5.04500125e-08
118    -6.54650522e-08
119    1.66808332e-06
120    6.46008737e-06
121    -3.31951427e-06
122    -2.02995262e-06
123    -5.47694832e-07
124    1.89035003e-15
125    -1.64810711e-05
126    1.12920496e-05
127    -2.601623e-06
128    -1.00761618e-15
129    -6.09328301e-05
130    -0.000236960931
131    -0.000157520995
132    9.57183391e-15
133    0.00186120377
134    -0.00111905532
135    -0.000399189881
136    -6.86227382e-14
137    0.000408286346
138    -0.00017382668
139    0.000252875591
140    -4.49675293e-14
141    -3.83003327e-06
142    9.11689197e-16
143    5.13629727e-07
144    1.14128309e-15
145    -5.56443594e-06
146    -9.17182543e-08
147    -7.02060791e-07
148    -3.41115511e-06
149    -1.17284969e-05
150    -2.79658996e-05
151    -1.00135786e-05
152    -4.38135358e-05
153    -1.53382253e-06
154    2.74409296e-07
155    7.18838937e-16
156    -1.1935862e-05
157    5.48462301e-06
158    2.42304073e-07
159    2.90606575e-15
160    9.2699187e-05
161    -5.60219151e-05
162    -2.41012088e-05
163    -1.10704353e-15
164    0.00045526118
165    -4.22694128e-05
166    -7.2159691e-05
167    9.35904463e-15
168    0.00238279489
169    -0.000383076513
170    -7.93591307e-05
171    1.52367802e-14
172    1.61945836e-06
173    1.66482655e-16
174    -1.25821898e-06
175    5.21774261e-17
176    4.486195e-07
177    1.31355368e-09
178    -2.50782846e-08
179    1.26564244e-07
180    -5.51692787e-07
181    6.80648546e-06
182    2.76217242e-05
183    -1.88727311e-05
184    -1.67346073e-05
185    1.49274117e-06
186    -1.76905259e-15
187    -3.91970926e-05
188    5.50471203e-05
189    5.5719829e-07
190    5.76617394e-15
191    -2.09488139e-05
192    -1.33650447e-05
193    1.89896818e-05
194    -1.40733785e-14
195    -0.000191313735
196    3.86732236e-05
197    -0.000213139826
198    4.145568e-14
199    0.00142418519
200    -0.00233510352
201    7.26583942e-05
202    4.41627588e-14
203    -3.89977471e-06
204    3.69709091e-16
205    4.50399192e-06
206    1.22059721e-15
207    -3.15304889e-05
208    1.31339545e-09
209    -2.76145689e-08
210    1.32266771e-07
211    -6.03497709e-07
212    7.26518766e-06
213    2.95958978e-05
214    -2.02196917e-05
215    -8.70014431e-06
216    1.47644045e-05
217    -3.01561914e-15
218    -4.43342892e-05
219    2.37690319e-05
220    -5.12886249e-05
221    1.79736474e-15
222    8.00623271e-06
223    -7.66566863e-06
224    1.93241467e-05
225    -1.58938568e-14
226    -0.000193860745
227    5.90797302e-05
228    1.38450559e-05
229    3.69138423e-14
230    0.00192128637
231    -0.0003794832
232    0.000770580882
233    1.41735941e-14
234    2.04196665e-05
235    -2.09236022e-16
236    4.10650169e-06
237    -2.54529843e-17
238    2.38391582e-05
239    -3.53761053e-11
240    -2.79317701e-10
241    -1.40820255e-09
242    -1.78120309e-09
243    6.66307595e-08
244    1.08178878e-06
245    -2.92039312e-07
246    -1.28553817e-06
247    5.19020026e-08
248    -4.49440221e-16
249    6.16613576e-08
250    1.3505205e-05
251    -1.06026282e-06
252    -5.42396008e-16
253    -0.000236722875
254    0.000144747279
255    -7.93324892e-05
256    -5.27597076e-15
257    -0.00307435404
258    0.000723342974
259    -0.000413175237
260    5.28532424e-14
261    0.000115211916
262    0.000110653421
263    0.000282320216
264    2.88439117e-14
265    -5.78139538e-06
266    3.09080927e-16
267    -1.28830887e-06
268    6.45506956e-16
269    -3.02039544e-07
270    -5.94534625e-07
271    -2.44185644e-05
272    -5.53295084e-05
273    -6.9763896e-05
274    3.62764115e-06
275    -2.5170775e-06
276    1.18839709e-16
[5D]