[Molden Format]
[Atoms] (Angs)
  C      1    6     -0.00714236     -1.70213747     -0.00000000
  H      2    1     -2.06882847     -1.44022412      0.00000000
  H      3    1     -0.12337987     -2.77567521      0.00000000
  H      4    1      0.04651892      1.98813947     -0.00000000
  C      5    6     -1.21953563      0.40211669      0.00000000
  O      6    8     -2.25921553      1.03043814      0.00000000
  C      7    6      1.28797806      0.34644937     -0.00000000
  O      8    8      2.31273661      1.00537216     -0.00000000
  N      9    7      0.03446295      0.97739857     -0.00000000
  N     10    7     -1.17287765     -0.98229824      0.00000000
  C     11    6      1.20107039     -1.10433419     -0.00000000
  H     12    1      2.11220096     -1.67699125     -0.00000000
[GTO]
1    0
S    1    1.000000
   4.56324000E+03    1.96665000E-03 
S    1    1.000000
   6.82024000E+02    1.52306000E-02 
S    1    1.000000
   1.54973000E+02    7.61269000E-02 
S    1    1.000000
   4.44553000E+01    2.60801000E-01 
S    1    1.000000
   1.30290000E+01    6.16462000E-01 
S    1    1.000000
   1.82773000E+00    2.21006000E-01 
SP   3    1.000000
   2.09642000E+01    1.14660000E-01   4.02487000E-02 
   4.80331000E+00    9.19999000E-01   2.37594000E-01 
   1.45933000E+00   -3.03068000E-03   8.15854000E-01 
SP   1    1.000000
   4.83456000E-01    1.00000000E+00   1.00000000E+00 
SP   1    1.000000
   1.45585000E-01    1.00000000E+00   1.00000000E+00 
SP   1    1.000000
   4.38000000E-02    1.00000000E+00   1.00000000E+00 
SP   1    1.000000
   1.31927711E-02    1.00000000E+00   1.00000000E+00 
D    1    1.000000
   6.26000000E-01    1.00000000E+00 

2    0
S    3    1.000000
   3.38650000E+01    2.54938000E-02 
   5.09479000E+00    1.90373000E-01 
   1.15879000E+00    8.52161000E-01 
S    1    1.000000
   3.25840000E-01    1.00000000E+00 
S    1    1.000000
   1.02741000E-01    1.00000000E+00 
S    1    1.000000
   3.60000000E-02    1.00000000E+00 
P    1    1.000000
   7.50000000E-01    1.00000000E+00 

3    0
S    3    1.000000
   3.38650000E+01    2.54938000E-02 
   5.09479000E+00    1.90373000E-01 
   1.15879000E+00    8.52161000E-01 
S    1    1.000000
   3.25840000E-01    1.00000000E+00 
S    1    1.000000
   1.02741000E-01    1.00000000E+00 
S    1    1.000000
   3.60000000E-02    1.00000000E+00 
P    1    1.000000
   7.50000000E-01    1.00000000E+00 

4    0
S    3    1.000000
   3.38650000E+01    2.54938000E-02 
   5.09479000E+00    1.90373000E-01 
   1.15879000E+00    8.52161000E-01 
S    1    1.000000
   3.25840000E-01    1.00000000E+00 
S    1    1.000000
   1.02741000E-01    1.00000000E+00 
S    1    1.000000
   3.60000000E-02    1.00000000E+00 
P    1    1.000000
   7.50000000E-01    1.00000000E+00 

5    0
S    1    1.000000
   4.56324000E+03    1.96665000E-03 
S    1    1.000000
   6.82024000E+02    1.52306000E-02 
S    1    1.000000
   1.54973000E+02    7.61269000E-02 
S    1    1.000000
   4.44553000E+01    2.60801000E-01 
S    1    1.000000
   1.30290000E+01    6.16462000E-01 
S    1    1.000000
   1.82773000E+00    2.21006000E-01 
SP   3    1.000000
   2.09642000E+01    1.14660000E-01   4.02487000E-02 
   4.80331000E+00    9.19999000E-01   2.37594000E-01 
   1.45933000E+00   -3.03068000E-03   8.15854000E-01 
SP   1    1.000000
   4.83456000E-01    1.00000000E+00   1.00000000E+00 
SP   1    1.000000
   1.45585000E-01    1.00000000E+00   1.00000000E+00 
SP   1    1.000000
   4.38000000E-02    1.00000000E+00   1.00000000E+00 
SP   1    1.000000
   1.31927711E-02    1.00000000E+00   1.00000000E+00 
D    1    1.000000
   6.26000000E-01    1.00000000E+00 

6    0
S    1    1.000000
   8.58850000E+03    1.89515000E-03 
S    1    1.000000
   1.29723000E+03    1.43859000E-02 
S    1    1.000000
   2.99296000E+02    7.07320000E-02 
S    1    1.000000
   8.73771000E+01    2.40001000E-01 
S    1    1.000000
   2.56789000E+01    5.94797000E-01 
S    1    1.000000
   3.74004000E+00    2.80802000E-01 
SP   3    1.000000
   4.21175000E+01    1.13889000E-01   3.65114000E-02 
   9.62837000E+00    9.20811000E-01   2.37153000E-01 
   2.85332000E+00   -3.27447000E-03   8.19702000E-01 
SP   1    1.000000
   9.05661000E-01    1.00000000E+00   1.00000000E+00 
SP   1    1.000000
   2.55611000E-01    1.00000000E+00   1.00000000E+00 
SP   1    1.000000
   8.45000000E-02    1.00000000E+00   1.00000000E+00 
SP   1    1.000000
   2.54518072E-02    1.00000000E+00   1.00000000E+00 
D    1    1.000000
   1.29200000E+00    1.00000000E+00 

7    0
S    1    1.000000
   4.56324000E+03    1.96665000E-03 
S    1    1.000000
   6.82024000E+02    1.52306000E-02 
S    1    1.000000
   1.54973000E+02    7.61269000E-02 
S    1    1.000000
   4.44553000E+01    2.60801000E-01 
S    1    1.000000
   1.30290000E+01    6.16462000E-01 
S    1    1.000000
   1.82773000E+00    2.21006000E-01 
SP   3    1.000000
   2.09642000E+01    1.14660000E-01   4.02487000E-02 
   4.80331000E+00    9.19999000E-01   2.37594000E-01 
   1.45933000E+00   -3.03068000E-03   8.15854000E-01 
SP   1    1.000000
   4.83456000E-01    1.00000000E+00   1.00000000E+00 
SP   1    1.000000
   1.45585000E-01    1.00000000E+00   1.00000000E+00 
SP   1    1.000000
   4.38000000E-02    1.00000000E+00   1.00000000E+00 
SP   1    1.000000
   1.31927711E-02    1.00000000E+00   1.00000000E+00 
D    1    1.000000
   6.26000000E-01    1.00000000E+00 

8    0
S    1    1.000000
   8.58850000E+03    1.89515000E-03 
S    1    1.000000
   1.29723000E+03    1.43859000E-02 
S    1    1.000000
   2.99296000E+02    7.07320000E-02 
S    1    1.000000
   8.73771000E+01    2.40001000E-01 
S    1    1.000000
   2.56789000E+01    5.94797000E-01 
S    1    1.000000
   3.74004000E+00    2.80802000E-01 
SP   3    1.000000
   4.21175000E+01    1.13889000E-01   3.65114000E-02 
   9.62837000E+00    9.20811000E-01   2.37153000E-01 
   2.85332000E+00   -3.27447000E-03   8.19702000E-01 
SP   1    1.000000
   9.05661000E-01    1.00000000E+00   1.00000000E+00 
SP   1    1.000000
   2.55611000E-01    1.00000000E+00   1.00000000E+00 
SP   1    1.000000
   8.45000000E-02    1.00000000E+00   1.00000000E+00 
SP   1    1.000000
   2.54518072E-02    1.00000000E+00   1.00000000E+00 
D    1    1.000000
   1.29200000E+00    1.00000000E+00 

9    0
S    1    1.000000
   6.29348000E+03    1.96979000E-03 
S    1    1.000000
   9.49044000E+02    1.49613000E-02 
S    1    1.000000
   2.18776000E+02    7.35006000E-02 
S    1    1.000000
   6.36916000E+01    2.48937000E-01 
S    1    1.000000
   1.88282000E+01    6.02460000E-01 
S    1    1.000000
   2.72023000E+00    2.56202000E-01 
SP   3    1.000000
   3.06331000E+01    1.11906000E-01   3.83119000E-02 
   7.02614000E+00    9.21666000E-01   2.37403000E-01 
   2.11205000E+00   -2.56919000E-03   8.17592000E-01 
SP   1    1.000000
   6.84009000E-01    1.00000000E+00   1.00000000E+00 
SP   1    1.000000
   2.00878000E-01    1.00000000E+00   1.00000000E+00 
SP   1    1.000000
   6.39000000E-02    1.00000000E+00   1.00000000E+00 
SP   1    1.000000
   1.92469880E-02    1.00000000E+00   1.00000000E+00 
D    1    1.000000
   9.13000000E-01    1.00000000E+00 

10    0
S    1    1.000000
   6.29348000E+03    1.96979000E-03 
S    1    1.000000
   9.49044000E+02    1.49613000E-02 
S    1    1.000000
   2.18776000E+02    7.35006000E-02 
S    1    1.000000
   6.36916000E+01    2.48937000E-01 
S    1    1.000000
   1.88282000E+01    6.02460000E-01 
S    1    1.000000
   2.72023000E+00    2.56202000E-01 
SP   3    1.000000
   3.06331000E+01    1.11906000E-01   3.83119000E-02 
   7.02614000E+00    9.21666000E-01   2.37403000E-01 
   2.11205000E+00   -2.56919000E-03   8.17592000E-01 
SP   1    1.000000
   6.84009000E-01    1.00000000E+00   1.00000000E+00 
SP   1    1.000000
   2.00878000E-01    1.00000000E+00   1.00000000E+00 
SP   1    1.000000
   6.39000000E-02    1.00000000E+00   1.00000000E+00 
SP   1    1.000000
   1.92469880E-02    1.00000000E+00   1.00000000E+00 
D    1    1.000000
   9.13000000E-01    1.00000000E+00 

11    0
S    1    1.000000
   4.56324000E+03    1.96665000E-03 
S    1    1.000000
   6.82024000E+02    1.52306000E-02 
S    1    1.000000
   1.54973000E+02    7.61269000E-02 
S    1    1.000000
   4.44553000E+01    2.60801000E-01 
S    1    1.000000
   1.30290000E+01    6.16462000E-01 
S    1    1.000000
   1.82773000E+00    2.21006000E-01 
SP   3    1.000000
   2.09642000E+01    1.14660000E-01   4.02487000E-02 
   4.80331000E+00    9.19999000E-01   2.37594000E-01 
   1.45933000E+00   -3.03068000E-03   8.15854000E-01 
SP   1    1.000000
   4.83456000E-01    1.00000000E+00   1.00000000E+00 
SP   1    1.000000
   1.45585000E-01    1.00000000E+00   1.00000000E+00 
SP   1    1.000000
   4.38000000E-02    1.00000000E+00   1.00000000E+00 
SP   1    1.000000
   1.31927711E-02    1.00000000E+00   1.00000000E+00 
D    1    1.000000
   6.26000000E-01    1.00000000E+00 

12    0
S    3    1.000000
   3.38650000E+01    2.54938000E-02 
   5.09479000E+00    1.90373000E-01 
   1.15879000E+00    8.52161000E-01 
S    1    1.000000
   3.25840000E-01    1.00000000E+00 
S    1    1.000000
   1.02741000E-01    1.00000000E+00 
S    1    1.000000
   3.60000000E-02    1.00000000E+00 
P    1    1.000000
   7.50000000E-01    1.00000000E+00 

[MO]
Sym=X
Ene=0.019333
Spin=Alpha
Occup=1
1    8.11731122e-10
2    -1.71726297e-09
3    5.0091581e-08
4    -5.90453767e-08
5    1.66823116e-06
6    6.65167182e-06
7    -3.33188228e-06
8    -1.62097095e-06
9    6.17894715e-07
10    -7.76228804e-16
11    -1.94466123e-05
12    1.66771904e-05
13    -5.42610279e-06
14    -2.53443829e-15
15    0.000149492253
16    2.65949204e-05
17    0.000148490215
18    6.0001099e-16
19    0.00288092499
20    -5.57733599e-06
21    0.00121474533
22    -4.83793645e-14
23    0.000314959287
24    0.000236447699
25    -0.000201680382
26    -9.3155431e-15
27    7.6102267e-06
28    1.04506042e-16
29    -2.71563736e-06
30    4.37300313e-16
31    4.78339938e-06
32    -6.87857875e-06
33    1.15072883e-05
34    2.50950577e-05
35    -9.53993455e-05
36    -3.36443996e-06
37    8.15580411e-06
38    -1.05962818e-15
39    -1.26377393e-06
40    1.95998864e-05
41    0.000111677133
42    0.000764771864
43    1.12478613e-06
44    3.57585275e-06
45    -2.58280362e-16
46    -5.55215817e-06
47    -9.54600884e-07
48    9.75650793e-05
49    -0.000125585842
50    -8.55213567e-06
51    -4.54364796e-07
52    3.14306847e-16
53    8.93211626e-09
54    1.2900391e-07
55    2.76483347e-07
56    3.22627938e-06
57    7.12105008e-06
58    0.000120336109
59    1.4458005e-05
60    3.51002088e-05
61    -2.16320803e-05
62    -2.46156256e-15
63    -0.000446171006
64    0.000453437157
65    -0.000272766149
66    9.87618509e-16
67    0.000890629133
68    -0.000469283716
69    0.000285837599
70    -6.32447055e-15
71    0.00214901991
72    -0.00270442817
73    0.00173891948
74    -4.94818073e-14
75    -0.00139343505
76    -0.000107669452
77    -0.000232084539
78    -5.71893117e-15
79    0.000243926777
80    6.14465336e-16
81    8.00366646e-05
82    1.09911837e-15
83    -0.000127608562
84    -0.00104384945
85    -0.0079406913
86    -0.0389355534
87    -0.13250963
88    -0.327964776
89    -0.155520535
90    -0.471287984
91    -0.00159310051
92    0.000975079128
93    -9.9084538e-16
94    -0.00493927522
95    0.000742637046
96    -0.000452855282
97    -7.10285275e-16
98    0.000586086059
99    -0.000409142904
100    0.000250304414
101    -5.11181313e-15
102    -0.00323885888
103    -0.000235871324
104    0.000142266728
105    5.64908844e-15
106    -0.00755068005
107    -0.00139654186
108    0.000692626521
109    -4.63440391e-15
110    -8.60933769e-05
111    7.73360259e-16
112    7.52544676e-05
113    -1.85312441e-16
114    4.74858923e-05
115    8.08117663e-10
116    -1.9620648e-09
117    5.0445137e-08
118    -6.55284986e-08
119    1.66795146e-06
120    6.45773992e-06
121    -3.31982001e-06
122    -2.02928254e-06
123    -5.47176497e-07
124    1.89034075e-15
125    -1.64724184e-05
126    1.13010647e-05
127    -2.59565116e-06
128    -1.00755058e-15
129    -6.09495465e-05
130    -0.000236967732
131    -0.000157525408
132    9.57175089e-15
133    0.00186119553
134    -0.00111912139
135    -0.000399224424
136    -6.86212203e-14
137    0.000408290297
138    -0.000173835828
139    0.000252891076
140    -4.49688626e-14
141    -3.82485814e-06
142    9.11701138e-16
143    5.12097852e-07
144    1.14129137e-15
145    -5.56209573e-06
146    -7.000966e-08
147    -5.36920822e-07
148    -2.60142522e-06
149    -8.97274383e-06
150    -2.11453718e-05
151    -6.77972233e-06
152    -3.40120054e-05
153    -1.56621719e-06
154    2.54910776e-07
155    7.18861547e-16
156    -1.1833168e-05
157    5.49967498e-06
158    2.51335178e-07
159    2.90605399e-15
160    9.26858964e-05
161    -5.60300029e-05
162    -2.41058588e-05
163    -1.10690682e-15
164    0.00045532399
165    -4.22725532e-05
166    -7.21627531e-05
167    9.35876328e-15
168    0.0023829286
169    -0.000383101375
170    -7.93669461e-05
171    1.52366931e-14
172    1.61755049e-06
173    1.66483913e-16
174    -1.26045055e-06
175    5.21736855e-17
176    4.4767293e-07
177    1.31353742e-09
178    -2.5077778e-08
179    1.2656226e-07
180    -5.51681938e-07
181    6.8063645e-06
182    2.76212248e-05
183    -1.88723786e-05
184    -1.67349687e-05
185    1.49276836e-06
186    -1.7690367e-15
187    -3.91965919e-05
188    5.50483068e-05
189    5.57018054e-07
190    5.76616474e-15
191    -2.09462539e-05
192    -1.33660503e-05
193    1.89884899e-05
194    -1.40732381e-14
195    -0.000191316743
196    3.86711777e-05
197    -0.000213137803
198    4.1455052e-14
199    0.00142413995
200    -0.00233516241
201    7.26595566e-05
202    4.41621825e-14
203    -3.9000322e-06
204    3.697222e-16
205    4.5038613e-06
206    1.22060255e-15
207    -3.15298978e-05
208    1.31339193e-09
209    -2.76144917e-08
210    1.32266398e-07
211    -6.03496027e-07
212    7.26516823e-06
213    2.95958213e-05
214    -2.02196426e-05
215    -8.70015501e-06
216    1.47644166e-05
217    -3.015612e-15
218    -4.43342347e-05
219    2.37691169e-05
220    -5.12886794e-05
221    1.79729243e-15
222    8.00868424e-06
223    -7.66365089e-06
224    1.9324827e-05
225    -1.58937413e-14
226    -0.000193846854
227    5.9084933e-05
228    1.38457369e-05
229    3.69131877e-14
230    0.00192128689
231    -0.000379477872
232    0.000770578346
233    1.41737971e-14
234    2.0419583e-05
235    -2.09234326e-16
236    4.10651171e-06
237    -2.54479893e-17
238    2.38391287e-05
239    -3.53471076e-11
240    -2.78930696e-10
241    -1.40738297e-09
242    -1.77407174e-09
243    6.66028311e-08
244    1.08157383e-06
245    -2.9189021e-07
246    -1.28570264e-06
247    5.16131838e-08
248    -4.49420269e-16
249    6.1821215e-08
250    1.35056474e-05
251    -1.05879397e-06
252    -5.42478473e-16
253    -0.000236719161
254    0.000144744554
255    -7.93329381e-05
256    -5.27574411e-15
257    -0.00307442651
258    0.000723378403
259    -0.000413176769
260    5.28516671e-14
261    0.000115222258
262    0.00011065986
263    0.000282323848
264    2.88464494e-14
265    -5.78056931e-06
266    3.09085166e-16
267    -1.28830843e-06
268    6.45502854e-16
269    -3.02864502e-07
270    -5.94416246e-07
271    -2.4417451e-05
272    -5.53309451e-05
273    -6.97838713e-05
274    3.62733505e-06
275    -2.51695188e-06
276    1.18836844e-16
[5D]