[Molden Format]
[Atoms] (Angs)
  C      1    6     -0.00714236     -1.70213747     -0.00000000
  H      2    1     -2.06882847     -1.44022412      0.00000000
  H      3    1     -0.12337987     -2.77567521      0.00000000
  H      4    1      0.04651892      1.98813947     -0.00000000
  C      5    6     -1.21953563      0.40211669      0.00000000
  O      6    8     -2.25921553      1.03043814      0.00000000
  C      7    6      1.28797806      0.34644937     -0.00000000
  O      8    8      2.31273661      1.00537216     -0.00000000
  N      9    7      0.03446295      0.97739857     -0.00000000
  N     10    7     -1.17287765     -0.98229824      0.00000000
  C     11    6      1.20107039     -1.10433419     -0.00000000
  H     12    1      2.11220096     -1.67699125     -0.00000000
[GTO]
1    0
S    1    1.000000
   4.56324000E+03    1.96665000E-03 
S    1    1.000000
   6.82024000E+02    1.52306000E-02 
S    1    1.000000
   1.54973000E+02    7.61269000E-02 
S    1    1.000000
   4.44553000E+01    2.60801000E-01 
S    1    1.000000
   1.30290000E+01    6.16462000E-01 
S    1    1.000000
   1.82773000E+00    2.21006000E-01 
SP   3    1.000000
   2.09642000E+01    1.14660000E-01   4.02487000E-02 
   4.80331000E+00    9.19999000E-01   2.37594000E-01 
   1.45933000E+00   -3.03068000E-03   8.15854000E-01 
SP   1    1.000000
   4.83456000E-01    1.00000000E+00   1.00000000E+00 
SP   1    1.000000
   1.45585000E-01    1.00000000E+00   1.00000000E+00 
SP   1    1.000000
   4.38000000E-02    1.00000000E+00   1.00000000E+00 
SP   1    1.000000
   1.31927711E-02    1.00000000E+00   1.00000000E+00 
D    1    1.000000
   6.26000000E-01    1.00000000E+00 

2    0
S    3    1.000000
   3.38650000E+01    2.54938000E-02 
   5.09479000E+00    1.90373000E-01 
   1.15879000E+00    8.52161000E-01 
S    1    1.000000
   3.25840000E-01    1.00000000E+00 
S    1    1.000000
   1.02741000E-01    1.00000000E+00 
S    1    1.000000
   3.60000000E-02    1.00000000E+00 
P    1    1.000000
   7.50000000E-01    1.00000000E+00 

3    0
S    3    1.000000
   3.38650000E+01    2.54938000E-02 
   5.09479000E+00    1.90373000E-01 
   1.15879000E+00    8.52161000E-01 
S    1    1.000000
   3.25840000E-01    1.00000000E+00 
S    1    1.000000
   1.02741000E-01    1.00000000E+00 
S    1    1.000000
   3.60000000E-02    1.00000000E+00 
P    1    1.000000
   7.50000000E-01    1.00000000E+00 

4    0
S    3    1.000000
   3.38650000E+01    2.54938000E-02 
   5.09479000E+00    1.90373000E-01 
   1.15879000E+00    8.52161000E-01 
S    1    1.000000
   3.25840000E-01    1.00000000E+00 
S    1    1.000000
   1.02741000E-01    1.00000000E+00 
S    1    1.000000
   3.60000000E-02    1.00000000E+00 
P    1    1.000000
   7.50000000E-01    1.00000000E+00 

5    0
S    1    1.000000
   4.56324000E+03    1.96665000E-03 
S    1    1.000000
   6.82024000E+02    1.52306000E-02 
S    1    1.000000
   1.54973000E+02    7.61269000E-02 
S    1    1.000000
   4.44553000E+01    2.60801000E-01 
S    1    1.000000
   1.30290000E+01    6.16462000E-01 
S    1    1.000000
   1.82773000E+00    2.21006000E-01 
SP   3    1.000000
   2.09642000E+01    1.14660000E-01   4.02487000E-02 
   4.80331000E+00    9.19999000E-01   2.37594000E-01 
   1.45933000E+00   -3.03068000E-03   8.15854000E-01 
SP   1    1.000000
   4.83456000E-01    1.00000000E+00   1.00000000E+00 
SP   1    1.000000
   1.45585000E-01    1.00000000E+00   1.00000000E+00 
SP   1    1.000000
   4.38000000E-02    1.00000000E+00   1.00000000E+00 
SP   1    1.000000
   1.31927711E-02    1.00000000E+00   1.00000000E+00 
D    1    1.000000
   6.26000000E-01    1.00000000E+00 

6    0
S    1    1.000000
   8.58850000E+03    1.89515000E-03 
S    1    1.000000
   1.29723000E+03    1.43859000E-02 
S    1    1.000000
   2.99296000E+02    7.07320000E-02 
S    1    1.000000
   8.73771000E+01    2.40001000E-01 
S    1    1.000000
   2.56789000E+01    5.94797000E-01 
S    1    1.000000
   3.74004000E+00    2.80802000E-01 
SP   3    1.000000
   4.21175000E+01    1.13889000E-01   3.65114000E-02 
   9.62837000E+00    9.20811000E-01   2.37153000E-01 
   2.85332000E+00   -3.27447000E-03   8.19702000E-01 
SP   1    1.000000
   9.05661000E-01    1.00000000E+00   1.00000000E+00 
SP   1    1.000000
   2.55611000E-01    1.00000000E+00   1.00000000E+00 
SP   1    1.000000
   8.45000000E-02    1.00000000E+00   1.00000000E+00 
SP   1    1.000000
   2.54518072E-02    1.00000000E+00   1.00000000E+00 
D    1    1.000000
   1.29200000E+00    1.00000000E+00 

7    0
S    1    1.000000
   4.56324000E+03    1.96665000E-03 
S    1    1.000000
   6.82024000E+02    1.52306000E-02 
S    1    1.000000
   1.54973000E+02    7.61269000E-02 
S    1    1.000000
   4.44553000E+01    2.60801000E-01 
S    1    1.000000
   1.30290000E+01    6.16462000E-01 
S    1    1.000000
   1.82773000E+00    2.21006000E-01 
SP   3    1.000000
   2.09642000E+01    1.14660000E-01   4.02487000E-02 
   4.80331000E+00    9.19999000E-01   2.37594000E-01 
   1.45933000E+00   -3.03068000E-03   8.15854000E-01 
SP   1    1.000000
   4.83456000E-01    1.00000000E+00   1.00000000E+00 
SP   1    1.000000
   1.45585000E-01    1.00000000E+00   1.00000000E+00 
SP   1    1.000000
   4.38000000E-02    1.00000000E+00   1.00000000E+00 
SP   1    1.000000
   1.31927711E-02    1.00000000E+00   1.00000000E+00 
D    1    1.000000
   6.26000000E-01    1.00000000E+00 

8    0
S    1    1.000000
   8.58850000E+03    1.89515000E-03 
S    1    1.000000
   1.29723000E+03    1.43859000E-02 
S    1    1.000000
   2.99296000E+02    7.07320000E-02 
S    1    1.000000
   8.73771000E+01    2.40001000E-01 
S    1    1.000000
   2.56789000E+01    5.94797000E-01 
S    1    1.000000
   3.74004000E+00    2.80802000E-01 
SP   3    1.000000
   4.21175000E+01    1.13889000E-01   3.65114000E-02 
   9.62837000E+00    9.20811000E-01   2.37153000E-01 
   2.85332000E+00   -3.27447000E-03   8.19702000E-01 
SP   1    1.000000
   9.05661000E-01    1.00000000E+00   1.00000000E+00 
SP   1    1.000000
   2.55611000E-01    1.00000000E+00   1.00000000E+00 
SP   1    1.000000
   8.45000000E-02    1.00000000E+00   1.00000000E+00 
SP   1    1.000000
   2.54518072E-02    1.00000000E+00   1.00000000E+00 
D    1    1.000000
   1.29200000E+00    1.00000000E+00 

9    0
S    1    1.000000
   6.29348000E+03    1.96979000E-03 
S    1    1.000000
   9.49044000E+02    1.49613000E-02 
S    1    1.000000
   2.18776000E+02    7.35006000E-02 
S    1    1.000000
   6.36916000E+01    2.48937000E-01 
S    1    1.000000
   1.88282000E+01    6.02460000E-01 
S    1    1.000000
   2.72023000E+00    2.56202000E-01 
SP   3    1.000000
   3.06331000E+01    1.11906000E-01   3.83119000E-02 
   7.02614000E+00    9.21666000E-01   2.37403000E-01 
   2.11205000E+00   -2.56919000E-03   8.17592000E-01 
SP   1    1.000000
   6.84009000E-01    1.00000000E+00   1.00000000E+00 
SP   1    1.000000
   2.00878000E-01    1.00000000E+00   1.00000000E+00 
SP   1    1.000000
   6.39000000E-02    1.00000000E+00   1.00000000E+00 
SP   1    1.000000
   1.92469880E-02    1.00000000E+00   1.00000000E+00 
D    1    1.000000
   9.13000000E-01    1.00000000E+00 

10    0
S    1    1.000000
   6.29348000E+03    1.96979000E-03 
S    1    1.000000
   9.49044000E+02    1.49613000E-02 
S    1    1.000000
   2.18776000E+02    7.35006000E-02 
S    1    1.000000
   6.36916000E+01    2.48937000E-01 
S    1    1.000000
   1.88282000E+01    6.02460000E-01 
S    1    1.000000
   2.72023000E+00    2.56202000E-01 
SP   3    1.000000
   3.06331000E+01    1.11906000E-01   3.83119000E-02 
   7.02614000E+00    9.21666000E-01   2.37403000E-01 
   2.11205000E+00   -2.56919000E-03   8.17592000E-01 
SP   1    1.000000
   6.84009000E-01    1.00000000E+00   1.00000000E+00 
SP   1    1.000000
   2.00878000E-01    1.00000000E+00   1.00000000E+00 
SP   1    1.000000
   6.39000000E-02    1.00000000E+00   1.00000000E+00 
SP   1    1.000000
   1.92469880E-02    1.00000000E+00   1.00000000E+00 
D    1    1.000000
   9.13000000E-01    1.00000000E+00 

11    0
S    1    1.000000
   4.56324000E+03    1.96665000E-03 
S    1    1.000000
   6.82024000E+02    1.52306000E-02 
S    1    1.000000
   1.54973000E+02    7.61269000E-02 
S    1    1.000000
   4.44553000E+01    2.60801000E-01 
S    1    1.000000
   1.30290000E+01    6.16462000E-01 
S    1    1.000000
   1.82773000E+00    2.21006000E-01 
SP   3    1.000000
   2.09642000E+01    1.14660000E-01   4.02487000E-02 
   4.80331000E+00    9.19999000E-01   2.37594000E-01 
   1.45933000E+00   -3.03068000E-03   8.15854000E-01 
SP   1    1.000000
   4.83456000E-01    1.00000000E+00   1.00000000E+00 
SP   1    1.000000
   1.45585000E-01    1.00000000E+00   1.00000000E+00 
SP   1    1.000000
   4.38000000E-02    1.00000000E+00   1.00000000E+00 
SP   1    1.000000
   1.31927711E-02    1.00000000E+00   1.00000000E+00 
D    1    1.000000
   6.26000000E-01    1.00000000E+00 

12    0
S    3    1.000000
   3.38650000E+01    2.54938000E-02 
   5.09479000E+00    1.90373000E-01 
   1.15879000E+00    8.52161000E-01 
S    1    1.000000
   3.25840000E-01    1.00000000E+00 
S    1    1.000000
   1.02741000E-01    1.00000000E+00 
S    1    1.000000
   3.60000000E-02    1.00000000E+00 
P    1    1.000000
   7.50000000E-01    1.00000000E+00 

[MO]
Sym=X
Ene=0.950956
Spin=Alpha
Occup=1
1    -1.69286683e-09
2    1.1589814e-08
3    -1.22100213e-07
4    2.98420702e-07
5    -4.76213014e-06
6    -1.86037015e-05
7    1.06950222e-05
8    -9.79235391e-07
9    -2.45049802e-06
10    -6.91082729e-17
11    4.97145087e-05
12    1.37405907e-05
13    1.53488707e-05
14    -8.38867177e-16
15    -0.000334598055
16    -2.98561274e-05
17    -0.000200294721
18    -5.08101915e-15
19    0.00206733391
20    0.000440773466
21    -0.000231403314
22    4.94889913e-14
23    0.000666249752
24    0.000276542195
25    4.80913473e-05
26    -1.07348784e-13
27    1.41480267e-05
28    -1.33426328e-17
29    3.57163396e-06
30    -1.50810602e-16
31    -7.91096748e-06
32    3.55186268e-07
33    2.50784941e-05
34    -7.43149481e-06
35    0.000122418929
36    7.90288476e-07
37    1.90366913e-06
38    -2.33134142e-16
39    -1.49545009e-06
40    -7.41582455e-06
41    -0.000162192621
42    -0.000299839699
43    3.05113852e-06
44    -3.13750041e-06
45    1.57393453e-16
46    7.15918426e-06
47    -3.45089825e-08
48    7.50378695e-06
49    0.000118661953
50    -5.13481809e-06
51    -1.04352042e-06
52    -5.31786218e-17
53    -9.16221973e-10
54    2.00214458e-09
55    -5.66724882e-08
56    6.87962479e-08
57    -1.8762654e-06
58    -7.36478739e-06
59    3.73991556e-06
60    -6.03097449e-07
61    5.97507692e-07
62    8.10854084e-16
63    2.11037545e-05
64    5.11021596e-06
65    2.47846872e-06
66    -2.8425529e-15
67    -4.57211893e-05
68    -0.000266359038
69    0.000111045848
70    3.51634245e-15
71    -0.00098470066
72    -0.0011517536
73    0.000125350558
74    1.82343359e-14
75    -0.00107113197
76    -0.00024516865
77    -0.000437094749
78    5.26042638e-14
79    -3.12418608e-06
80    4.95487866e-16
81    1.49334851e-06
82    3.41455518e-16
83    5.00845238e-06
84    3.07969357e-08
85    2.3722019e-07
86    1.14203061e-06
87    3.96724543e-06
88    9.09623366e-06
89    2.06897003e-06
90    1.55569914e-05
91    -1.75437245e-06
92    -6.17297858e-07
93    -6.25808998e-16
94    8.72700621e-06
95    5.83529209e-06
96    1.24085955e-06
97    1.45101226e-15
98    -7.75440661e-05
99    -4.96449762e-05
100    1.93569803e-05
101    -4.88773814e-15
102    -0.000452369568
103    -2.56446013e-05
104    8.50727112e-05
105    6.23843578e-15
106    -0.00248913139
107    -0.000389167388
108    8.59006406e-05
109    -2.06963962e-14
110    1.70187238e-06
111    5.7494123e-17
112    1.11997923e-06
113    3.33583585e-16
114    -6.65039786e-08
115    -7.87195905e-09
116    -1.2047892e-07
117    -2.34444551e-07
118    -3.05081498e-06
119    -6.34086422e-06
120    -0.000112877807
121    -1.47010851e-05
122    3.22211472e-05
123    2.49242132e-05
124    -4.46458625e-16
125    0.000416069293
126    0.000433489611
127    0.00028715621
128    3.15465667e-15
129    -0.000803800929
130    -0.000327015014
131    -0.000212190273
132    -3.99309292e-15
133    -0.000396501531
134    -0.00317675363
135    -0.00166094727
136    7.29938124e-14
137    0.000189945254
138    -0.000439866595
139    0.000744585415
140    -6.4106137e-14
141    0.00024884694
142    5.7408518e-16
143    -7.36603084e-05
144    3.9797763e-16
145    0.000112529814
146    0.00104385846
147    0.00794076078
148    0.0389358877
149    0.132510477
150    0.327965298
151    0.155500082
152    0.471306909
153    -0.00155769797
154    -0.000937586981
155    1.08711498e-15
156    0.00493804625
157    0.000723774011
158    0.00043426097
159    -5.65831767e-16
160    -0.00063909102
161    -0.000388898186
162    -0.000223590277
163    6.57349738e-15
164    0.0030201598
165    -0.00015100174
166    -0.000147232741
167    -1.3529656e-14
168    0.00642950111
169    -0.00119545345
170    -0.00037579544
171    -4.19036086e-15
172    -9.17404921e-05
173    6.04611966e-17
174    -0.000107304863
175    -1.79871062e-16
176    -4.5515891e-05
177    -7.82156955e-10
178    2.43589548e-08
179    -9.54036368e-08
180    5.21698177e-07
181    -5.81680025e-06
182    -2.4012611e-05
183    1.69520392e-05
184    -1.73760544e-05
185    1.3072953e-06
186    7.64025333e-16
187    2.40811853e-05
188    5.70471365e-05
189    -8.66671237e-06
190    -4.4330784e-16
191    0.000123099461
192    -4.83527152e-05
193    -5.73136041e-05
194    6.75157579e-15
195    -0.000144621246
196    -9.83836831e-05
197    9.73015125e-05
198    -3.02037756e-14
199    -0.00217546526
200    -0.00283156042
201    5.5885173e-05
202    -2.77139486e-14
203    -1.23809677e-05
204    6.30327233e-16
205    -6.28149833e-06
206    2.56874181e-16
207    2.84262325e-05
208    -1.69396664e-10
209    3.71859992e-09
210    -1.79360301e-08
211    8.09344799e-08
212    -9.34955301e-07
213    -3.68448785e-06
214    2.36183659e-06
215    -5.13630504e-07
216    5.77271122e-07
217    3.43632371e-16
218    2.62445441e-06
219    4.08366697e-06
220    -2.61503928e-06
221    -3.47729656e-15
222    0.000117880866
223    9.70242488e-05
224    3.27083894e-05
225    5.55962186e-15
226    0.000667990861
227    0.000250170653
228    3.27459435e-05
229    -3.14787331e-14
230    2.48983627e-05
231    0.000256257718
232    -0.000122010487
233    9.76257094e-15
234    -4.01745117e-06
235    8.15753652e-17
236    4.81372141e-07
237    2.40188058e-16
238    -1.4185634e-06
239    1.39435849e-09
240    1.86091702e-08
241    3.94096301e-08
242    3.42911277e-07
243    -1.34294595e-06
244    -1.03359209e-05
245    7.16960861e-06
246    -7.90821438e-06
247    -1.38878664e-05
248    9.59415448e-16
249    7.68674242e-06
250    2.12694683e-05
251    7.06298941e-05
252    -3.96526872e-15
253    0.000178579488
254    -0.000131046155
255    -2.15787053e-05
256    1.0899028e-14
257    -0.00348410536
258    0.00170352629
259    -7.36084592e-05
260    -7.57558591e-14
261    0.000497271068
262    0.000309605491
263    0.000174641888
264    1.22019911e-13
265    3.97224336e-05
266    2.03810298e-16
267    2.14838261e-08
268    -1.97279466e-16
269    -3.96680627e-05
270    5.69235368e-06
271    5.3544469e-05
272    -6.9077968e-05
273    -0.000960503619
274    -1.47190536e-05
275    6.0407127e-06
276    -1.37801444e-16
[5D]