[Molden Format]
[Atoms] (Angs)
  C      1    6     -0.00714236     -1.70213747     -0.00000000
  H      2    1     -2.06882847     -1.44022412      0.00000000
  H      3    1     -0.12337987     -2.77567521      0.00000000
  H      4    1      0.04651892      1.98813947     -0.00000000
  C      5    6     -1.21953563      0.40211669      0.00000000
  O      6    8     -2.25921553      1.03043814      0.00000000
  C      7    6      1.28797806      0.34644937     -0.00000000
  O      8    8      2.31273661      1.00537216     -0.00000000
  N      9    7      0.03446295      0.97739857     -0.00000000
  N     10    7     -1.17287765     -0.98229824      0.00000000
  C     11    6      1.20107039     -1.10433419     -0.00000000
  H     12    1      2.11220096     -1.67699125     -0.00000000
[GTO]
1    0
S    1    1.000000
   4.56324000E+03    1.96665000E-03 
S    1    1.000000
   6.82024000E+02    1.52306000E-02 
S    1    1.000000
   1.54973000E+02    7.61269000E-02 
S    1    1.000000
   4.44553000E+01    2.60801000E-01 
S    1    1.000000
   1.30290000E+01    6.16462000E-01 
S    1    1.000000
   1.82773000E+00    2.21006000E-01 
SP   3    1.000000
   2.09642000E+01    1.14660000E-01   4.02487000E-02 
   4.80331000E+00    9.19999000E-01   2.37594000E-01 
   1.45933000E+00   -3.03068000E-03   8.15854000E-01 
SP   1    1.000000
   4.83456000E-01    1.00000000E+00   1.00000000E+00 
SP   1    1.000000
   1.45585000E-01    1.00000000E+00   1.00000000E+00 
SP   1    1.000000
   4.38000000E-02    1.00000000E+00   1.00000000E+00 
SP   1    1.000000
   1.31927711E-02    1.00000000E+00   1.00000000E+00 
D    1    1.000000
   6.26000000E-01    1.00000000E+00 

2    0
S    3    1.000000
   3.38650000E+01    2.54938000E-02 
   5.09479000E+00    1.90373000E-01 
   1.15879000E+00    8.52161000E-01 
S    1    1.000000
   3.25840000E-01    1.00000000E+00 
S    1    1.000000
   1.02741000E-01    1.00000000E+00 
S    1    1.000000
   3.60000000E-02    1.00000000E+00 
P    1    1.000000
   7.50000000E-01    1.00000000E+00 

3    0
S    3    1.000000
   3.38650000E+01    2.54938000E-02 
   5.09479000E+00    1.90373000E-01 
   1.15879000E+00    8.52161000E-01 
S    1    1.000000
   3.25840000E-01    1.00000000E+00 
S    1    1.000000
   1.02741000E-01    1.00000000E+00 
S    1    1.000000
   3.60000000E-02    1.00000000E+00 
P    1    1.000000
   7.50000000E-01    1.00000000E+00 

4    0
S    3    1.000000
   3.38650000E+01    2.54938000E-02 
   5.09479000E+00    1.90373000E-01 
   1.15879000E+00    8.52161000E-01 
S    1    1.000000
   3.25840000E-01    1.00000000E+00 
S    1    1.000000
   1.02741000E-01    1.00000000E+00 
S    1    1.000000
   3.60000000E-02    1.00000000E+00 
P    1    1.000000
   7.50000000E-01    1.00000000E+00 

5    0
S    1    1.000000
   4.56324000E+03    1.96665000E-03 
S    1    1.000000
   6.82024000E+02    1.52306000E-02 
S    1    1.000000
   1.54973000E+02    7.61269000E-02 
S    1    1.000000
   4.44553000E+01    2.60801000E-01 
S    1    1.000000
   1.30290000E+01    6.16462000E-01 
S    1    1.000000
   1.82773000E+00    2.21006000E-01 
SP   3    1.000000
   2.09642000E+01    1.14660000E-01   4.02487000E-02 
   4.80331000E+00    9.19999000E-01   2.37594000E-01 
   1.45933000E+00   -3.03068000E-03   8.15854000E-01 
SP   1    1.000000
   4.83456000E-01    1.00000000E+00   1.00000000E+00 
SP   1    1.000000
   1.45585000E-01    1.00000000E+00   1.00000000E+00 
SP   1    1.000000
   4.38000000E-02    1.00000000E+00   1.00000000E+00 
SP   1    1.000000
   1.31927711E-02    1.00000000E+00   1.00000000E+00 
D    1    1.000000
   6.26000000E-01    1.00000000E+00 

6    0
S    1    1.000000
   8.58850000E+03    1.89515000E-03 
S    1    1.000000
   1.29723000E+03    1.43859000E-02 
S    1    1.000000
   2.99296000E+02    7.07320000E-02 
S    1    1.000000
   8.73771000E+01    2.40001000E-01 
S    1    1.000000
   2.56789000E+01    5.94797000E-01 
S    1    1.000000
   3.74004000E+00    2.80802000E-01 
SP   3    1.000000
   4.21175000E+01    1.13889000E-01   3.65114000E-02 
   9.62837000E+00    9.20811000E-01   2.37153000E-01 
   2.85332000E+00   -3.27447000E-03   8.19702000E-01 
SP   1    1.000000
   9.05661000E-01    1.00000000E+00   1.00000000E+00 
SP   1    1.000000
   2.55611000E-01    1.00000000E+00   1.00000000E+00 
SP   1    1.000000
   8.45000000E-02    1.00000000E+00   1.00000000E+00 
SP   1    1.000000
   2.54518072E-02    1.00000000E+00   1.00000000E+00 
D    1    1.000000
   1.29200000E+00    1.00000000E+00 

7    0
S    1    1.000000
   4.56324000E+03    1.96665000E-03 
S    1    1.000000
   6.82024000E+02    1.52306000E-02 
S    1    1.000000
   1.54973000E+02    7.61269000E-02 
S    1    1.000000
   4.44553000E+01    2.60801000E-01 
S    1    1.000000
   1.30290000E+01    6.16462000E-01 
S    1    1.000000
   1.82773000E+00    2.21006000E-01 
SP   3    1.000000
   2.09642000E+01    1.14660000E-01   4.02487000E-02 
   4.80331000E+00    9.19999000E-01   2.37594000E-01 
   1.45933000E+00   -3.03068000E-03   8.15854000E-01 
SP   1    1.000000
   4.83456000E-01    1.00000000E+00   1.00000000E+00 
SP   1    1.000000
   1.45585000E-01    1.00000000E+00   1.00000000E+00 
SP   1    1.000000
   4.38000000E-02    1.00000000E+00   1.00000000E+00 
SP   1    1.000000
   1.31927711E-02    1.00000000E+00   1.00000000E+00 
D    1    1.000000
   6.26000000E-01    1.00000000E+00 

8    0
S    1    1.000000
   8.58850000E+03    1.89515000E-03 
S    1    1.000000
   1.29723000E+03    1.43859000E-02 
S    1    1.000000
   2.99296000E+02    7.07320000E-02 
S    1    1.000000
   8.73771000E+01    2.40001000E-01 
S    1    1.000000
   2.56789000E+01    5.94797000E-01 
S    1    1.000000
   3.74004000E+00    2.80802000E-01 
SP   3    1.000000
   4.21175000E+01    1.13889000E-01   3.65114000E-02 
   9.62837000E+00    9.20811000E-01   2.37153000E-01 
   2.85332000E+00   -3.27447000E-03   8.19702000E-01 
SP   1    1.000000
   9.05661000E-01    1.00000000E+00   1.00000000E+00 
SP   1    1.000000
   2.55611000E-01    1.00000000E+00   1.00000000E+00 
SP   1    1.000000
   8.45000000E-02    1.00000000E+00   1.00000000E+00 
SP   1    1.000000
   2.54518072E-02    1.00000000E+00   1.00000000E+00 
D    1    1.000000
   1.29200000E+00    1.00000000E+00 

9    0
S    1    1.000000
   6.29348000E+03    1.96979000E-03 
S    1    1.000000
   9.49044000E+02    1.49613000E-02 
S    1    1.000000
   2.18776000E+02    7.35006000E-02 
S    1    1.000000
   6.36916000E+01    2.48937000E-01 
S    1    1.000000
   1.88282000E+01    6.02460000E-01 
S    1    1.000000
   2.72023000E+00    2.56202000E-01 
SP   3    1.000000
   3.06331000E+01    1.11906000E-01   3.83119000E-02 
   7.02614000E+00    9.21666000E-01   2.37403000E-01 
   2.11205000E+00   -2.56919000E-03   8.17592000E-01 
SP   1    1.000000
   6.84009000E-01    1.00000000E+00   1.00000000E+00 
SP   1    1.000000
   2.00878000E-01    1.00000000E+00   1.00000000E+00 
SP   1    1.000000
   6.39000000E-02    1.00000000E+00   1.00000000E+00 
SP   1    1.000000
   1.92469880E-02    1.00000000E+00   1.00000000E+00 
D    1    1.000000
   9.13000000E-01    1.00000000E+00 

10    0
S    1    1.000000
   6.29348000E+03    1.96979000E-03 
S    1    1.000000
   9.49044000E+02    1.49613000E-02 
S    1    1.000000
   2.18776000E+02    7.35006000E-02 
S    1    1.000000
   6.36916000E+01    2.48937000E-01 
S    1    1.000000
   1.88282000E+01    6.02460000E-01 
S    1    1.000000
   2.72023000E+00    2.56202000E-01 
SP   3    1.000000
   3.06331000E+01    1.11906000E-01   3.83119000E-02 
   7.02614000E+00    9.21666000E-01   2.37403000E-01 
   2.11205000E+00   -2.56919000E-03   8.17592000E-01 
SP   1    1.000000
   6.84009000E-01    1.00000000E+00   1.00000000E+00 
SP   1    1.000000
   2.00878000E-01    1.00000000E+00   1.00000000E+00 
SP   1    1.000000
   6.39000000E-02    1.00000000E+00   1.00000000E+00 
SP   1    1.000000
   1.92469880E-02    1.00000000E+00   1.00000000E+00 
D    1    1.000000
   9.13000000E-01    1.00000000E+00 

11    0
S    1    1.000000
   4.56324000E+03    1.96665000E-03 
S    1    1.000000
   6.82024000E+02    1.52306000E-02 
S    1    1.000000
   1.54973000E+02    7.61269000E-02 
S    1    1.000000
   4.44553000E+01    2.60801000E-01 
S    1    1.000000
   1.30290000E+01    6.16462000E-01 
S    1    1.000000
   1.82773000E+00    2.21006000E-01 
SP   3    1.000000
   2.09642000E+01    1.14660000E-01   4.02487000E-02 
   4.80331000E+00    9.19999000E-01   2.37594000E-01 
   1.45933000E+00   -3.03068000E-03   8.15854000E-01 
SP   1    1.000000
   4.83456000E-01    1.00000000E+00   1.00000000E+00 
SP   1    1.000000
   1.45585000E-01    1.00000000E+00   1.00000000E+00 
SP   1    1.000000
   4.38000000E-02    1.00000000E+00   1.00000000E+00 
SP   1    1.000000
   1.31927711E-02    1.00000000E+00   1.00000000E+00 
D    1    1.000000
   6.26000000E-01    1.00000000E+00 

12    0
S    3    1.000000
   3.38650000E+01    2.54938000E-02 
   5.09479000E+00    1.90373000E-01 
   1.15879000E+00    8.52161000E-01 
S    1    1.000000
   3.25840000E-01    1.00000000E+00 
S    1    1.000000
   1.02741000E-01    1.00000000E+00 
S    1    1.000000
   3.60000000E-02    1.00000000E+00 
P    1    1.000000
   7.50000000E-01    1.00000000E+00 

[MO]
Sym=X
Ene=2.2e-05
Spin=Alpha
Occup=1
1    -7.18973136e-10
2    1.08781957e-09
3    -4.3413627e-08
4    4.28164997e-08
5    -1.40819524e-06
6    -5.63562113e-06
7    2.74848606e-06
8    1.67157675e-06
9    -4.84436304e-07
10    7.78834691e-16
11    1.67289906e-05
12    -1.73961418e-05
13    4.58790654e-06
14    2.57611836e-15
15    -0.000131174448
16    -2.49410868e-05
17    -0.000137438862
18    -3.24283561e-16
19    -0.0029885521
20    -1.82739501e-05
21    -0.00120045562
22    4.56317315e-14
23    -0.000350539828
24    -0.000251061985
25    0.000198784701
26    1.51088654e-14
27    -8.3644458e-06
28    -1.03631822e-16
29    2.51847193e-06
30    -4.285044e-16
31    -4.34848586e-06
32    6.84933012e-06
33    -1.28470933e-05
34    -2.46564479e-05
35    8.8638051e-05
36    3.31678177e-06
37    -8.24688239e-06
38    1.0706934e-15
39    1.34282491e-06
40    -1.91701411e-05
41    -0.000102740577
42    -0.000747436637
43    -1.28819311e-06
44    -3.40091632e-06
45    2.49389531e-16
46    5.15678998e-06
47    9.55074933e-07
48    -9.78286496e-05
49    0.000118983738
50    8.81742114e-06
51    5.10149992e-07
52    -3.10971663e-16
53    -8.8695231e-09
54    -1.28924009e-07
55    -2.73014348e-07
56    -3.22529398e-06
57    -7.00916663e-06
58    -0.00011976216
59    -1.46392186e-05
60    -3.50163769e-05
61    2.15681996e-05
62    2.41410912e-15
63    0.000444378499
64    -0.000453052064
65    0.000272234138
66    -8.32412932e-16
67    -0.000886856549
68    0.000483007468
69    -0.00029142749
70    6.12503109e-15
71    -0.0020926184
72    0.00276278548
73    -0.00174316325
74    4.84232518e-14
75    0.00144934385
76    0.000120774497
77    0.000255390102
78    2.86501876e-15
79    -0.000243401911
80    -6.4037175e-16
81    -8.00006794e-05
82    -1.11598551e-15
83    0.000127151466
84    0.0010423249
85    0.00792909372
86    0.0388786882
87    0.132316096
88    0.327485813
89    0.155293532
90    0.470599575
91    0.00159087122
92    -0.000973623184
93    1.02325227e-15
94    0.00493159719
95    -0.000741869259
96    0.000452127484
97    6.30758142e-16
98    -0.000581036353
99    0.000411231491
100    -0.000250986336
101    5.36875221e-15
102    0.0032586041
103    0.000236914425
104    -0.000146661087
105    -5.97830816e-15
106    0.00767431107
107    0.001415556
108    -0.000696262741
109    5.74719121e-15
110    8.58757136e-05
111    -7.75342076e-16
112    -7.52052622e-05
113    1.66997255e-16
114    -4.74130172e-05
115    -3.81113844e-10
116    8.47637521e-09
117    -3.76895255e-08
118    2.30463333e-07
119    -1.32251608e-06
120    -3.42319562e-07
121    4.11021551e-06
122    2.83354962e-07
123    -8.01869308e-07
124    -1.86343223e-15
125    -6.05841795e-06
126    -3.47337147e-05
127    -1.29415307e-05
128    8.35433017e-16
129    0.000104341342
130    0.00025431153
131    0.000168773789
132    -9.34178466e-15
133    -0.0018370319
134    0.00128933164
135    0.000488489082
136    6.45725893e-14
137    -0.000417969515
138    0.00019737631
139    -0.000292799649
140    4.83710071e-14
141    -9.64181977e-06
142    -9.41425546e-16
143    3.47322152e-06
144    -1.16115449e-15
145    -5.3319372e-07
146    -5.6396452e-05
147    -0.000429010464
148    -0.00210359581
149    -0.00715904687
150    -0.0177198027
151    -0.00840483375
152    -0.0254608594
153    8.58258674e-05
154    5.04631836e-05
155    -7.76619066e-16
156    -0.000255302202
157    -4.46433997e-05
158    -2.37418315e-05
159    -2.87120628e-15
160    -5.79797598e-05
161    7.6985274e-05
162    3.61655573e-05
163    7.49705934e-16
164    -0.000618031891
165    5.03791522e-05
166    8.00218652e-05
167    -8.61323803e-15
168    -0.00272724882
169    0.000447209187
170    9.95793922e-05
171    -1.49877913e-14
172    3.34740902e-06
173    -1.69511609e-16
174    7.06314862e-06
175    -4.23676442e-17
176    2.01511156e-06
177    -1.26931118e-09
178    2.37235213e-08
179    -1.21216863e-07
180    5.22656403e-07
181    -6.48178131e-06
182    -2.62819926e-05
183    1.79278438e-05
184    1.76504922e-05
185    -1.56130723e-06
186    1.72512674e-15
187    3.78367627e-05
188    -5.80538975e-05
189    -8.73892713e-08
190    -5.73377218e-15
191    1.42567671e-05
192    1.59621367e-05
193    -1.58604719e-05
194    1.36874876e-14
195    0.000198860755
196    -3.32928042e-05
197    0.000207563437
198    -3.97607332e-14
199    -0.00130438289
200    0.00248492573
201    -7.5576599e-05
202    -4.25985987e-14
203    4.56407705e-06
204    -4.03279658e-16
205    -4.15749992e-06
206    -1.23271713e-15
207    2.99462131e-05
208    -1.30231249e-09
209    2.73730511e-08
210    -1.31103204e-07
211    5.9823752e-07
212    -7.20399364e-06
213    -2.93533354e-05
214    2.0062383e-05
215    8.71524654e-06
216    -1.47741035e-05
217    2.99262409e-15
218    4.41275882e-05
219    -2.39553413e-05
220    5.13553115e-05
221    -1.60656986e-15
222    -1.43736343e-05
223    2.40405174e-06
224    -2.10659576e-05
225    1.55698122e-14
226    0.000157429828
227    -7.2531436e-05
228    -1.55968926e-05
229    -3.51565277e-14
230    -0.00191983076
231    0.000365062272
232    -0.000762854121
233    -1.46812142e-14
234    -2.01724731e-05
235    2.04516344e-16
236    -4.12655997e-06
237    1.24181578e-17
238    -2.3727614e-05
239    -4.01307286e-11
240    -7.28118556e-10
241    -7.26490284e-10
242    -1.67779197e-08
243    6.13950013e-09
244    -5.20885796e-07
245    -9.63676159e-08
246    1.71161295e-06
247    6.99710766e-07
248    3.96866097e-16
249    -4.77536785e-07
250    -1.4636492e-05
251    -2.76339609e-06
252    7.56183837e-16
253    0.000226713751
254    -0.000137444589
255    8.03844746e-05
256    4.67847651e-15
257    0.00325840999
258    -0.000814473415
259    0.000416555749
260    -4.86766325e-14
261    -0.000141953483
262    -0.000127246181
263    -0.000291359021
264    -3.54048961e-14
265    3.62339521e-06
266    -3.1965913e-16
267    1.28526676e-06
268    -6.33889511e-16
269    2.44822228e-06
270    2.8562752e-07
271    2.14853998e-05
272    5.89869179e-05
273    0.000121639435
274    -2.8258323e-06
275    2.18651425e-06
276    -1.11209256e-16
[5D]