[Molden Format]
[Atoms] (Angs)
  C      1    6     -0.00714236     -1.70213747     -0.00000000
  H      2    1     -2.06882847     -1.44022412      0.00000000
  H      3    1     -0.12337987     -2.77567521      0.00000000
  H      4    1      0.04651892      1.98813947     -0.00000000
  C      5    6     -1.21953563      0.40211669      0.00000000
  O      6    8     -2.25921553      1.03043814      0.00000000
  C      7    6      1.28797806      0.34644937     -0.00000000
  O      8    8      2.31273661      1.00537216     -0.00000000
  N      9    7      0.03446295      0.97739857     -0.00000000
  N     10    7     -1.17287765     -0.98229824      0.00000000
  C     11    6      1.20107039     -1.10433419     -0.00000000
  H     12    1      2.11220096     -1.67699125     -0.00000000
[GTO]
1    0
S    1    1.000000
   4.56324000E+03    1.96665000E-03 
S    1    1.000000
   6.82024000E+02    1.52306000E-02 
S    1    1.000000
   1.54973000E+02    7.61269000E-02 
S    1    1.000000
   4.44553000E+01    2.60801000E-01 
S    1    1.000000
   1.30290000E+01    6.16462000E-01 
S    1    1.000000
   1.82773000E+00    2.21006000E-01 
SP   3    1.000000
   2.09642000E+01    1.14660000E-01   4.02487000E-02 
   4.80331000E+00    9.19999000E-01   2.37594000E-01 
   1.45933000E+00   -3.03068000E-03   8.15854000E-01 
SP   1    1.000000
   4.83456000E-01    1.00000000E+00   1.00000000E+00 
SP   1    1.000000
   1.45585000E-01    1.00000000E+00   1.00000000E+00 
SP   1    1.000000
   4.38000000E-02    1.00000000E+00   1.00000000E+00 
SP   1    1.000000
   1.31927711E-02    1.00000000E+00   1.00000000E+00 
D    1    1.000000
   6.26000000E-01    1.00000000E+00 

2    0
S    3    1.000000
   3.38650000E+01    2.54938000E-02 
   5.09479000E+00    1.90373000E-01 
   1.15879000E+00    8.52161000E-01 
S    1    1.000000
   3.25840000E-01    1.00000000E+00 
S    1    1.000000
   1.02741000E-01    1.00000000E+00 
S    1    1.000000
   3.60000000E-02    1.00000000E+00 
P    1    1.000000
   7.50000000E-01    1.00000000E+00 

3    0
S    3    1.000000
   3.38650000E+01    2.54938000E-02 
   5.09479000E+00    1.90373000E-01 
   1.15879000E+00    8.52161000E-01 
S    1    1.000000
   3.25840000E-01    1.00000000E+00 
S    1    1.000000
   1.02741000E-01    1.00000000E+00 
S    1    1.000000
   3.60000000E-02    1.00000000E+00 
P    1    1.000000
   7.50000000E-01    1.00000000E+00 

4    0
S    3    1.000000
   3.38650000E+01    2.54938000E-02 
   5.09479000E+00    1.90373000E-01 
   1.15879000E+00    8.52161000E-01 
S    1    1.000000
   3.25840000E-01    1.00000000E+00 
S    1    1.000000
   1.02741000E-01    1.00000000E+00 
S    1    1.000000
   3.60000000E-02    1.00000000E+00 
P    1    1.000000
   7.50000000E-01    1.00000000E+00 

5    0
S    1    1.000000
   4.56324000E+03    1.96665000E-03 
S    1    1.000000
   6.82024000E+02    1.52306000E-02 
S    1    1.000000
   1.54973000E+02    7.61269000E-02 
S    1    1.000000
   4.44553000E+01    2.60801000E-01 
S    1    1.000000
   1.30290000E+01    6.16462000E-01 
S    1    1.000000
   1.82773000E+00    2.21006000E-01 
SP   3    1.000000
   2.09642000E+01    1.14660000E-01   4.02487000E-02 
   4.80331000E+00    9.19999000E-01   2.37594000E-01 
   1.45933000E+00   -3.03068000E-03   8.15854000E-01 
SP   1    1.000000
   4.83456000E-01    1.00000000E+00   1.00000000E+00 
SP   1    1.000000
   1.45585000E-01    1.00000000E+00   1.00000000E+00 
SP   1    1.000000
   4.38000000E-02    1.00000000E+00   1.00000000E+00 
SP   1    1.000000
   1.31927711E-02    1.00000000E+00   1.00000000E+00 
D    1    1.000000
   6.26000000E-01    1.00000000E+00 

6    0
S    1    1.000000
   8.58850000E+03    1.89515000E-03 
S    1    1.000000
   1.29723000E+03    1.43859000E-02 
S    1    1.000000
   2.99296000E+02    7.07320000E-02 
S    1    1.000000
   8.73771000E+01    2.40001000E-01 
S    1    1.000000
   2.56789000E+01    5.94797000E-01 
S    1    1.000000
   3.74004000E+00    2.80802000E-01 
SP   3    1.000000
   4.21175000E+01    1.13889000E-01   3.65114000E-02 
   9.62837000E+00    9.20811000E-01   2.37153000E-01 
   2.85332000E+00   -3.27447000E-03   8.19702000E-01 
SP   1    1.000000
   9.05661000E-01    1.00000000E+00   1.00000000E+00 
SP   1    1.000000
   2.55611000E-01    1.00000000E+00   1.00000000E+00 
SP   1    1.000000
   8.45000000E-02    1.00000000E+00   1.00000000E+00 
SP   1    1.000000
   2.54518072E-02    1.00000000E+00   1.00000000E+00 
D    1    1.000000
   1.29200000E+00    1.00000000E+00 

7    0
S    1    1.000000
   4.56324000E+03    1.96665000E-03 
S    1    1.000000
   6.82024000E+02    1.52306000E-02 
S    1    1.000000
   1.54973000E+02    7.61269000E-02 
S    1    1.000000
   4.44553000E+01    2.60801000E-01 
S    1    1.000000
   1.30290000E+01    6.16462000E-01 
S    1    1.000000
   1.82773000E+00    2.21006000E-01 
SP   3    1.000000
   2.09642000E+01    1.14660000E-01   4.02487000E-02 
   4.80331000E+00    9.19999000E-01   2.37594000E-01 
   1.45933000E+00   -3.03068000E-03   8.15854000E-01 
SP   1    1.000000
   4.83456000E-01    1.00000000E+00   1.00000000E+00 
SP   1    1.000000
   1.45585000E-01    1.00000000E+00   1.00000000E+00 
SP   1    1.000000
   4.38000000E-02    1.00000000E+00   1.00000000E+00 
SP   1    1.000000
   1.31927711E-02    1.00000000E+00   1.00000000E+00 
D    1    1.000000
   6.26000000E-01    1.00000000E+00 

8    0
S    1    1.000000
   8.58850000E+03    1.89515000E-03 
S    1    1.000000
   1.29723000E+03    1.43859000E-02 
S    1    1.000000
   2.99296000E+02    7.07320000E-02 
S    1    1.000000
   8.73771000E+01    2.40001000E-01 
S    1    1.000000
   2.56789000E+01    5.94797000E-01 
S    1    1.000000
   3.74004000E+00    2.80802000E-01 
SP   3    1.000000
   4.21175000E+01    1.13889000E-01   3.65114000E-02 
   9.62837000E+00    9.20811000E-01   2.37153000E-01 
   2.85332000E+00   -3.27447000E-03   8.19702000E-01 
SP   1    1.000000
   9.05661000E-01    1.00000000E+00   1.00000000E+00 
SP   1    1.000000
   2.55611000E-01    1.00000000E+00   1.00000000E+00 
SP   1    1.000000
   8.45000000E-02    1.00000000E+00   1.00000000E+00 
SP   1    1.000000
   2.54518072E-02    1.00000000E+00   1.00000000E+00 
D    1    1.000000
   1.29200000E+00    1.00000000E+00 

9    0
S    1    1.000000
   6.29348000E+03    1.96979000E-03 
S    1    1.000000
   9.49044000E+02    1.49613000E-02 
S    1    1.000000
   2.18776000E+02    7.35006000E-02 
S    1    1.000000
   6.36916000E+01    2.48937000E-01 
S    1    1.000000
   1.88282000E+01    6.02460000E-01 
S    1    1.000000
   2.72023000E+00    2.56202000E-01 
SP   3    1.000000
   3.06331000E+01    1.11906000E-01   3.83119000E-02 
   7.02614000E+00    9.21666000E-01   2.37403000E-01 
   2.11205000E+00   -2.56919000E-03   8.17592000E-01 
SP   1    1.000000
   6.84009000E-01    1.00000000E+00   1.00000000E+00 
SP   1    1.000000
   2.00878000E-01    1.00000000E+00   1.00000000E+00 
SP   1    1.000000
   6.39000000E-02    1.00000000E+00   1.00000000E+00 
SP   1    1.000000
   1.92469880E-02    1.00000000E+00   1.00000000E+00 
D    1    1.000000
   9.13000000E-01    1.00000000E+00 

10    0
S    1    1.000000
   6.29348000E+03    1.96979000E-03 
S    1    1.000000
   9.49044000E+02    1.49613000E-02 
S    1    1.000000
   2.18776000E+02    7.35006000E-02 
S    1    1.000000
   6.36916000E+01    2.48937000E-01 
S    1    1.000000
   1.88282000E+01    6.02460000E-01 
S    1    1.000000
   2.72023000E+00    2.56202000E-01 
SP   3    1.000000
   3.06331000E+01    1.11906000E-01   3.83119000E-02 
   7.02614000E+00    9.21666000E-01   2.37403000E-01 
   2.11205000E+00   -2.56919000E-03   8.17592000E-01 
SP   1    1.000000
   6.84009000E-01    1.00000000E+00   1.00000000E+00 
SP   1    1.000000
   2.00878000E-01    1.00000000E+00   1.00000000E+00 
SP   1    1.000000
   6.39000000E-02    1.00000000E+00   1.00000000E+00 
SP   1    1.000000
   1.92469880E-02    1.00000000E+00   1.00000000E+00 
D    1    1.000000
   9.13000000E-01    1.00000000E+00 

11    0
S    1    1.000000
   4.56324000E+03    1.96665000E-03 
S    1    1.000000
   6.82024000E+02    1.52306000E-02 
S    1    1.000000
   1.54973000E+02    7.61269000E-02 
S    1    1.000000
   4.44553000E+01    2.60801000E-01 
S    1    1.000000
   1.30290000E+01    6.16462000E-01 
S    1    1.000000
   1.82773000E+00    2.21006000E-01 
SP   3    1.000000
   2.09642000E+01    1.14660000E-01   4.02487000E-02 
   4.80331000E+00    9.19999000E-01   2.37594000E-01 
   1.45933000E+00   -3.03068000E-03   8.15854000E-01 
SP   1    1.000000
   4.83456000E-01    1.00000000E+00   1.00000000E+00 
SP   1    1.000000
   1.45585000E-01    1.00000000E+00   1.00000000E+00 
SP   1    1.000000
   4.38000000E-02    1.00000000E+00   1.00000000E+00 
SP   1    1.000000
   1.31927711E-02    1.00000000E+00   1.00000000E+00 
D    1    1.000000
   6.26000000E-01    1.00000000E+00 

12    0
S    3    1.000000
   3.38650000E+01    2.54938000E-02 
   5.09479000E+00    1.90373000E-01 
   1.15879000E+00    8.52161000E-01 
S    1    1.000000
   3.25840000E-01    1.00000000E+00 
S    1    1.000000
   1.02741000E-01    1.00000000E+00 
S    1    1.000000
   3.60000000E-02    1.00000000E+00 
P    1    1.000000
   7.50000000E-01    1.00000000E+00 

[MO]
Sym=X
Ene=5e-06
Spin=Alpha
Occup=1
1    6.43114586e-10
2    -7.08745675e-09
3    5.22966264e-08
4    -1.72125339e-07
5    2.23920388e-06
6    8.65357943e-06
7    -5.31883061e-06
8    1.83345275e-06
9    1.3204104e-06
10    5.92068525e-16
11    -2.19564309e-05
12    -2.14847507e-05
13    -7.18279937e-06
14    2.37166418e-15
15    0.00013476614
16    2.75828366e-06
17    3.94252813e-05
18    3.21401887e-15
19    -0.00349237346
20    -0.000311301535
21    -0.000683729953
22    -1.56875549e-15
23    -0.000696623219
24    -0.000363054147
25    0.000106600905
26    8.32782975e-14
27    -1.54375477e-05
28    -6.3517016e-17
29    -6.55646466e-07
30    -1.97863539e-16
31    2.31319978e-06
32    4.55470362e-06
33    -2.59783815e-05
34    -1.22292177e-05
35    -2.08506376e-05
36    1.78688259e-06
37    -7.06291583e-06
38    9.074845e-16
39    1.95289143e-06
40    -8.39884065e-06
41    3.79135858e-05
42    -0.000320221585
43    -2.96821234e-06
44    -2.56168123e-07
45    6.80062188e-17
46    -1.23816721e-06
47    6.92023259e-07
48    -7.35721425e-05
49    2.9388832e-06
50    9.65060456e-06
51    1.0638685e-06
52    -1.81698245e-16
53    -5.58909654e-09
54    -9.16162392e-08
55    -1.52757974e-07
56    -2.30463504e-06
57    -3.6364757e-06
58    -7.88583572e-05
59    -1.27817939e-05
60    -2.4106693e-05
61    1.46953455e-05
62    1.14098938e-15
63    0.000296819276
64    -0.000320644737
65    0.00018891391
66    1.34230416e-15
67    -0.000589928446
68    0.000518543881
69    -0.000279234071
70    1.90676824e-15
71    -0.000798176954
72    0.00271424881
73    -0.00130528888
74    2.15523929e-14
75    0.00174010215
76    0.000250591946
77    0.000474816323
78    -3.36197113e-14
79    -0.000168291027
80    -7.83889759e-16
81    -5.70202075e-05
82    -1.01255291e-15
83    8.56274419e-05
84    0.000729715783
85    0.0055510357
86    0.0272183817
87    0.0926324435
88    0.22926822
89    0.108720342
90    0.329458473
91    0.00111496466
92    -0.000681220181
93    1.14020446e-15
94    0.00344672448
95    -0.000523338081
96    0.000315696254
97    -5.41081599e-16
98    -0.000354270656
99    0.000321526517
100    -0.000188825984
101    7.06884344e-15
102    0.00258772544
103    0.000183232378
104    -0.000160292468
105    -8.41033814e-15
106    0.0070585523
107    0.00125459585
108    -0.000545631912
109    1.80399898e-14
110    5.89694269e-05
111    -5.81757803e-16
112    -5.34100537e-05
113    -1.08999386e-16
114    -3.31490407e-05
115    5.06435794e-09
116    8.75270664e-08
117    1.32387777e-07
118    2.22747157e-06
119    3.36836451e-06
120    7.62053048e-05
121    1.28336921e-05
122    -2.1622957e-05
123    -1.7440978e-05
124    -1.00223974e-15
125    -0.000286018816
126    -0.000317892202
127    -0.000203533078
128    -1.55155782e-15
129    0.000617413155
130    0.000399511201
131    0.000261862321
132    -3.83595997e-15
133    -0.00101758951
134    0.00305408056
135    0.00146684756
136    -4.22649206e-15
137    -0.0004212603
138    0.000436077785
139    -0.00070925081
140    7.72797852e-14
141    -0.000175278501
142    -1.04788792e-15
143    5.23170643e-05
144    -1.08245475e-15
145    -7.65825828e-05
146    -0.000746422415
147    -0.00567812486
148    -0.0278415396
149    -0.0947530071
150    -0.234515771
151    -0.111194587
152    -0.337011484
153    0.00111501693
154    0.000670297589
155    -1.2799486e-15
156    -0.00352296317
157    -0.000521421195
158    -0.000310719125
159    -1.62694332e-15
160    0.000392223823
161    0.000317273782
162    0.000176743163
163    -3.92693929e-15
164    -0.00247804936
165    0.000137534566
166    0.000155735068
167    3.13260706e-15
168    -0.00626365238
169    0.00112269793
170    0.000324218375
171    -7.65515909e-15
172    6.44735417e-05
173    -1.59622412e-16
174    7.76157082e-05
175    9.21534485e-17
176    3.22358094e-05
177    -3.58945617e-10
178    1.12178548e-10
179    -2.02536848e-08
180    1.26012237e-08
181    -5.98576908e-07
182    -2.13793313e-06
183    1.07083027e-06
184    2.41248911e-05
185    -1.97842666e-06
186    6.90343665e-16
187    1.01810418e-05
188    -7.92782106e-05
189    5.80823182e-06
190    -3.71401704e-15
191    -7.33862104e-05
192    4.3921389e-05
193    2.77108694e-05
194    5.01026219e-15
195    0.000237166142
196    4.33205646e-05
197    7.94200227e-05
198    -7.38158151e-15
199    0.00056009967
200    0.00365734427
201    -9.07590134e-05
202    -1.10545862e-14
203    1.15801747e-05
204    -7.09218587e-16
205    1.34337405e-06
206    -1.0369957e-15
207    1.71420611e-06
208    -7.97033592e-10
209    1.66456323e-08
210    -7.96390453e-08
211    3.64017164e-07
212    -4.41036452e-06
213    -1.80551407e-05
214    1.24462483e-05
215    6.44943499e-06
216    -1.07343694e-05
217    1.86243004e-15
218    2.91165589e-05
219    -1.95368569e-05
220    3.77250985e-05
221    1.23018473e-15
222    -8.98962687e-05
223    -6.40252692e-05
224    -3.68996908e-05
225    7.13532127e-15
226    -0.000342170382
227    -0.000220204288
228    -3.30962052e-05
229    -3.2947076e-15
230    -0.00136094476
231    8.20347731e-05
232    -0.000451447862
233    -1.6889957e-14
234    -1.14020803e-05
235    8.79370578e-17
236    -3.21502709e-06
237    -1.53970095e-16
238    -1.56511129e-05
239    -9.724061e-10
240    -1.31125676e-08
241    -2.71982571e-08
242    -2.43978315e-07
243    9.1379023e-07
244    6.63518766e-06
245    -4.92298767e-06
246    6.55403938e-06
247    9.89524012e-06
248    -3.71903258e-16
249    -5.54006789e-06
250    -2.4651537e-05
251    -4.97678051e-05
252    3.2148324e-15
253    3.77828415e-05
254    -7.47638063e-06
255    7.08914399e-05
256    -4.10579521e-15
257    0.00464079151
258    -0.00172390681
259    0.000341482999
260    1.72258859e-14
261    -0.000436152401
262    -0.00029876178
263    -0.000322255693
264    -1.07423467e-13
265    -2.43647234e-05
266    -3.61822644e-16
267    8.8527176e-07
268    -3.10184228e-16
269    2.85786698e-05
270    -3.65510018e-06
271    -2.12202349e-05
272    8.80791401e-05
273    0.000735648405
274    7.98990085e-06
275    -2.56020172e-06
276    1.54660289e-17
[5D]