[Molden Format]
[Atoms] (Angs)
  C      1    6     -0.00714236     -1.70213747     -0.00000000
  H      2    1     -2.06882847     -1.44022412      0.00000000
  H      3    1     -0.12337987     -2.77567521      0.00000000
  H      4    1      0.04651892      1.98813947     -0.00000000
  C      5    6     -1.21953563      0.40211669      0.00000000
  O      6    8     -2.25921553      1.03043814      0.00000000
  C      7    6      1.28797806      0.34644937     -0.00000000
  O      8    8      2.31273661      1.00537216     -0.00000000
  N      9    7      0.03446295      0.97739857     -0.00000000
  N     10    7     -1.17287765     -0.98229824      0.00000000
  C     11    6      1.20107039     -1.10433419     -0.00000000
  H     12    1      2.11220096     -1.67699125     -0.00000000
[GTO]
1    0
S    1    1.000000
   4.56324000E+03    1.96665000E-03 
S    1    1.000000
   6.82024000E+02    1.52306000E-02 
S    1    1.000000
   1.54973000E+02    7.61269000E-02 
S    1    1.000000
   4.44553000E+01    2.60801000E-01 
S    1    1.000000
   1.30290000E+01    6.16462000E-01 
S    1    1.000000
   1.82773000E+00    2.21006000E-01 
SP   3    1.000000
   2.09642000E+01    1.14660000E-01   4.02487000E-02 
   4.80331000E+00    9.19999000E-01   2.37594000E-01 
   1.45933000E+00   -3.03068000E-03   8.15854000E-01 
SP   1    1.000000
   4.83456000E-01    1.00000000E+00   1.00000000E+00 
SP   1    1.000000
   1.45585000E-01    1.00000000E+00   1.00000000E+00 
SP   1    1.000000
   4.38000000E-02    1.00000000E+00   1.00000000E+00 
SP   1    1.000000
   1.31927711E-02    1.00000000E+00   1.00000000E+00 
D    1    1.000000
   6.26000000E-01    1.00000000E+00 

2    0
S    3    1.000000
   3.38650000E+01    2.54938000E-02 
   5.09479000E+00    1.90373000E-01 
   1.15879000E+00    8.52161000E-01 
S    1    1.000000
   3.25840000E-01    1.00000000E+00 
S    1    1.000000
   1.02741000E-01    1.00000000E+00 
S    1    1.000000
   3.60000000E-02    1.00000000E+00 
P    1    1.000000
   7.50000000E-01    1.00000000E+00 

3    0
S    3    1.000000
   3.38650000E+01    2.54938000E-02 
   5.09479000E+00    1.90373000E-01 
   1.15879000E+00    8.52161000E-01 
S    1    1.000000
   3.25840000E-01    1.00000000E+00 
S    1    1.000000
   1.02741000E-01    1.00000000E+00 
S    1    1.000000
   3.60000000E-02    1.00000000E+00 
P    1    1.000000
   7.50000000E-01    1.00000000E+00 

4    0
S    3    1.000000
   3.38650000E+01    2.54938000E-02 
   5.09479000E+00    1.90373000E-01 
   1.15879000E+00    8.52161000E-01 
S    1    1.000000
   3.25840000E-01    1.00000000E+00 
S    1    1.000000
   1.02741000E-01    1.00000000E+00 
S    1    1.000000
   3.60000000E-02    1.00000000E+00 
P    1    1.000000
   7.50000000E-01    1.00000000E+00 

5    0
S    1    1.000000
   4.56324000E+03    1.96665000E-03 
S    1    1.000000
   6.82024000E+02    1.52306000E-02 
S    1    1.000000
   1.54973000E+02    7.61269000E-02 
S    1    1.000000
   4.44553000E+01    2.60801000E-01 
S    1    1.000000
   1.30290000E+01    6.16462000E-01 
S    1    1.000000
   1.82773000E+00    2.21006000E-01 
SP   3    1.000000
   2.09642000E+01    1.14660000E-01   4.02487000E-02 
   4.80331000E+00    9.19999000E-01   2.37594000E-01 
   1.45933000E+00   -3.03068000E-03   8.15854000E-01 
SP   1    1.000000
   4.83456000E-01    1.00000000E+00   1.00000000E+00 
SP   1    1.000000
   1.45585000E-01    1.00000000E+00   1.00000000E+00 
SP   1    1.000000
   4.38000000E-02    1.00000000E+00   1.00000000E+00 
SP   1    1.000000
   1.31927711E-02    1.00000000E+00   1.00000000E+00 
D    1    1.000000
   6.26000000E-01    1.00000000E+00 

6    0
S    1    1.000000
   8.58850000E+03    1.89515000E-03 
S    1    1.000000
   1.29723000E+03    1.43859000E-02 
S    1    1.000000
   2.99296000E+02    7.07320000E-02 
S    1    1.000000
   8.73771000E+01    2.40001000E-01 
S    1    1.000000
   2.56789000E+01    5.94797000E-01 
S    1    1.000000
   3.74004000E+00    2.80802000E-01 
SP   3    1.000000
   4.21175000E+01    1.13889000E-01   3.65114000E-02 
   9.62837000E+00    9.20811000E-01   2.37153000E-01 
   2.85332000E+00   -3.27447000E-03   8.19702000E-01 
SP   1    1.000000
   9.05661000E-01    1.00000000E+00   1.00000000E+00 
SP   1    1.000000
   2.55611000E-01    1.00000000E+00   1.00000000E+00 
SP   1    1.000000
   8.45000000E-02    1.00000000E+00   1.00000000E+00 
SP   1    1.000000
   2.54518072E-02    1.00000000E+00   1.00000000E+00 
D    1    1.000000
   1.29200000E+00    1.00000000E+00 

7    0
S    1    1.000000
   4.56324000E+03    1.96665000E-03 
S    1    1.000000
   6.82024000E+02    1.52306000E-02 
S    1    1.000000
   1.54973000E+02    7.61269000E-02 
S    1    1.000000
   4.44553000E+01    2.60801000E-01 
S    1    1.000000
   1.30290000E+01    6.16462000E-01 
S    1    1.000000
   1.82773000E+00    2.21006000E-01 
SP   3    1.000000
   2.09642000E+01    1.14660000E-01   4.02487000E-02 
   4.80331000E+00    9.19999000E-01   2.37594000E-01 
   1.45933000E+00   -3.03068000E-03   8.15854000E-01 
SP   1    1.000000
   4.83456000E-01    1.00000000E+00   1.00000000E+00 
SP   1    1.000000
   1.45585000E-01    1.00000000E+00   1.00000000E+00 
SP   1    1.000000
   4.38000000E-02    1.00000000E+00   1.00000000E+00 
SP   1    1.000000
   1.31927711E-02    1.00000000E+00   1.00000000E+00 
D    1    1.000000
   6.26000000E-01    1.00000000E+00 

8    0
S    1    1.000000
   8.58850000E+03    1.89515000E-03 
S    1    1.000000
   1.29723000E+03    1.43859000E-02 
S    1    1.000000
   2.99296000E+02    7.07320000E-02 
S    1    1.000000
   8.73771000E+01    2.40001000E-01 
S    1    1.000000
   2.56789000E+01    5.94797000E-01 
S    1    1.000000
   3.74004000E+00    2.80802000E-01 
SP   3    1.000000
   4.21175000E+01    1.13889000E-01   3.65114000E-02 
   9.62837000E+00    9.20811000E-01   2.37153000E-01 
   2.85332000E+00   -3.27447000E-03   8.19702000E-01 
SP   1    1.000000
   9.05661000E-01    1.00000000E+00   1.00000000E+00 
SP   1    1.000000
   2.55611000E-01    1.00000000E+00   1.00000000E+00 
SP   1    1.000000
   8.45000000E-02    1.00000000E+00   1.00000000E+00 
SP   1    1.000000
   2.54518072E-02    1.00000000E+00   1.00000000E+00 
D    1    1.000000
   1.29200000E+00    1.00000000E+00 

9    0
S    1    1.000000
   6.29348000E+03    1.96979000E-03 
S    1    1.000000
   9.49044000E+02    1.49613000E-02 
S    1    1.000000
   2.18776000E+02    7.35006000E-02 
S    1    1.000000
   6.36916000E+01    2.48937000E-01 
S    1    1.000000
   1.88282000E+01    6.02460000E-01 
S    1    1.000000
   2.72023000E+00    2.56202000E-01 
SP   3    1.000000
   3.06331000E+01    1.11906000E-01   3.83119000E-02 
   7.02614000E+00    9.21666000E-01   2.37403000E-01 
   2.11205000E+00   -2.56919000E-03   8.17592000E-01 
SP   1    1.000000
   6.84009000E-01    1.00000000E+00   1.00000000E+00 
SP   1    1.000000
   2.00878000E-01    1.00000000E+00   1.00000000E+00 
SP   1    1.000000
   6.39000000E-02    1.00000000E+00   1.00000000E+00 
SP   1    1.000000
   1.92469880E-02    1.00000000E+00   1.00000000E+00 
D    1    1.000000
   9.13000000E-01    1.00000000E+00 

10    0
S    1    1.000000
   6.29348000E+03    1.96979000E-03 
S    1    1.000000
   9.49044000E+02    1.49613000E-02 
S    1    1.000000
   2.18776000E+02    7.35006000E-02 
S    1    1.000000
   6.36916000E+01    2.48937000E-01 
S    1    1.000000
   1.88282000E+01    6.02460000E-01 
S    1    1.000000
   2.72023000E+00    2.56202000E-01 
SP   3    1.000000
   3.06331000E+01    1.11906000E-01   3.83119000E-02 
   7.02614000E+00    9.21666000E-01   2.37403000E-01 
   2.11205000E+00   -2.56919000E-03   8.17592000E-01 
SP   1    1.000000
   6.84009000E-01    1.00000000E+00   1.00000000E+00 
SP   1    1.000000
   2.00878000E-01    1.00000000E+00   1.00000000E+00 
SP   1    1.000000
   6.39000000E-02    1.00000000E+00   1.00000000E+00 
SP   1    1.000000
   1.92469880E-02    1.00000000E+00   1.00000000E+00 
D    1    1.000000
   9.13000000E-01    1.00000000E+00 

11    0
S    1    1.000000
   4.56324000E+03    1.96665000E-03 
S    1    1.000000
   6.82024000E+02    1.52306000E-02 
S    1    1.000000
   1.54973000E+02    7.61269000E-02 
S    1    1.000000
   4.44553000E+01    2.60801000E-01 
S    1    1.000000
   1.30290000E+01    6.16462000E-01 
S    1    1.000000
   1.82773000E+00    2.21006000E-01 
SP   3    1.000000
   2.09642000E+01    1.14660000E-01   4.02487000E-02 
   4.80331000E+00    9.19999000E-01   2.37594000E-01 
   1.45933000E+00   -3.03068000E-03   8.15854000E-01 
SP   1    1.000000
   4.83456000E-01    1.00000000E+00   1.00000000E+00 
SP   1    1.000000
   1.45585000E-01    1.00000000E+00   1.00000000E+00 
SP   1    1.000000
   4.38000000E-02    1.00000000E+00   1.00000000E+00 
SP   1    1.000000
   1.31927711E-02    1.00000000E+00   1.00000000E+00 
D    1    1.000000
   6.26000000E-01    1.00000000E+00 

12    0
S    3    1.000000
   3.38650000E+01    2.54938000E-02 
   5.09479000E+00    1.90373000E-01 
   1.15879000E+00    8.52161000E-01 
S    1    1.000000
   3.25840000E-01    1.00000000E+00 
S    1    1.000000
   1.02741000E-01    1.00000000E+00 
S    1    1.000000
   3.60000000E-02    1.00000000E+00 
P    1    1.000000
   7.50000000E-01    1.00000000E+00 

[MO]
Sym=X
Ene=0.010908
Spin=Alpha
Occup=1
1    -8.1145455e-10
2    1.71536947e-09
3    -5.00716328e-08
4    5.89966219e-08
5    -1.66745314e-06
6    -6.64863242e-06
7    3.33013497e-06
8    1.62113094e-06
9    -6.17494362e-07
10    7.76240097e-16
11    1.94384902e-05
12    -1.66794353e-05
13    5.42359516e-06
14    2.53457534e-15
15    -0.000149437588
16    -2.65900426e-05
17    -0.000148457492
18    -5.99180872e-16
19    -0.00288126275
20    5.50532395e-06
21    -0.00121470753
22    4.83712792e-14
23    -0.000315068138
24    -0.000236492881
25    0.000201672526
26    9.3330814e-15
27    -7.61253817e-06
28    -1.04503862e-16
29    2.71505385e-06
30    -4.37275675e-16
31    -4.78210692e-06
32    6.87852074e-06
33    -1.15113855e-05
34    -2.50938436e-05
35    9.53793453e-05
36    3.36431085e-06
37    -8.15611515e-06
38    1.05966627e-15
39    1.26401826e-06
40    -1.95986748e-05
41    -0.000111650635
42    -0.000764722879
43    -1.12528462e-06
44    -3.57534017e-06
45    2.58254649e-16
46    5.55098854e-06
47    9.54606524e-07
48    -9.75663055e-05
49    0.000125566456
50    8.5529746e-06
51    4.54535284e-07
52    -3.14298159e-16
53    -8.93196659e-09
54    -1.29004238e-07
55    -2.76474089e-07
56    -3.22629062e-06
57    -7.12074356e-06
58    -0.000120334906
59    -1.44586161e-05
60    -3.51001103e-05
61    2.16319828e-05
62    2.46143009e-15
63    0.000446167559
64    -0.000453437993
65    0.000272765745
66    -9.87154105e-16
67    -0.000890621665
68    0.000469327233
69    -0.000285855742
70    6.32389608e-15
71    -0.00214885904
72    0.00270461634
73    -0.00173893996
74    4.94788284e-14
75    0.00139361005
76    0.000107709507
77    0.000232155951
78    5.71033688e-15
79    -0.000243926267
80    -6.14546289e-16
81    -8.00369088e-05
82    -1.09917416e-15
83    0.000127607744
84    0.00104384945
85    0.00794069128
86    0.0389355533
87    0.13250963
88    0.327964775
89    0.155520535
90    0.471287982
91    0.0015931008
92    -0.00097507903
93    9.90947625e-16
94    0.00493927381
95    -0.000742638001
96    0.00045285508
97    7.10048215e-16
98    -0.000586073392
99    0.000409151016
100    -0.000250307577
101    5.11261169e-15
102    0.00323893279
103    0.000235875514
104    -0.000142280627
105    -5.65010767e-15
106    0.00755108673
107    0.00139660544
108    -0.000692640557
109    4.63778523e-15
110    8.60930991e-05
111    -7.73369654e-16
112    -7.52546508e-05
113    1.85257942e-16
114    -4.74858815e-05
115    -8.06831572e-10
116    1.98174824e-09
117    -5.04068344e-08
118    6.60269304e-08
119    -1.66691551e-06
120    -6.43929835e-06
121    3.32222183e-06
122    2.02401836e-06
123    5.43104466e-07
124    -1.89026781e-15
125    1.64044425e-05
126    -1.13718867e-05
127    2.54873658e-06
128    1.00703518e-15
129    6.10808689e-05
130    0.000237021159
131    0.000157560076
132    -9.57109854e-15
133    -0.00186113075
134    0.0011196404
135    0.000399495784
136    6.8609295e-14
137    -0.000408321331
138    0.000173907692
139    -0.000253012725
140    4.49793362e-14
141    3.78420239e-06
142    -9.11794933e-16
143    -5.00063486e-07
144    -1.1413564e-15
145    5.54371101e-06
146    -1.00532336e-07
147    -7.60413301e-07
148    -3.75978589e-06
149    -1.26763611e-05
150    -3.24364681e-05
151    -1.86253451e-05
152    -4.29884928e-05
153    1.82070852e-06
154    -1.01731048e-07
155    -7.19039158e-16
156    1.10264071e-05
157    -5.6179227e-06
158    -3.22283239e-07
159    -2.90596155e-15
160    -9.25814841e-05
161    5.60935399e-05
162    2.41423882e-05
163    1.10583287e-15
164    -0.000455817415
165    4.22972235e-05
166    7.21868077e-05
167    -9.35655287e-15
168    -0.00238397904
169    0.000383296685
170    7.94283424e-05
171    -1.52360085e-14
172    -1.60256225e-06
173    -1.66493791e-16
174    1.27798165e-06
175    -5.21442989e-17
176    -4.40236702e-07
177    -1.31340963e-09
178    2.50737984e-08
179    -1.26546673e-07
180    5.51596706e-07
181    -6.80541419e-06
182    -2.76173018e-05
183    1.88696091e-05
184    1.67378076e-05
185    -1.49298195e-06
186    1.76891189e-15
187    3.91926577e-05
188    -5.50576271e-05
189    -5.55602118e-07
190    -5.76609233e-15
191    2.09261424e-05
192    1.33739501e-05
193    -1.89791263e-05
194    1.40721351e-14
195    0.000191340372
196    -3.86551042e-05
197    0.000213121907
198    -4.14501175e-14
199    -0.00142378454
200    0.00233562503
201    -7.26686871e-05
202    -4.41576548e-14
203    3.90205497e-06
204    -3.69825182e-16
205    -4.50283506e-06
206    -1.22064452e-15
207    3.15252537e-05
208    -1.31336426e-09
209    2.76138842e-08
210    -1.32263468e-07
211    6.03482806e-07
212    -7.2650155e-06
213    -2.95952194e-05
214    2.02192568e-05
215    8.70023895e-06
216    -1.47645109e-05
217    3.01555587e-15
218    4.43338061e-05
219    -2.37697841e-05
220    5.12891067e-05
221    -1.79672432e-15
222    -8.02794323e-06
223    7.64779942e-06
224    -1.93301708e-05
225    1.5892833e-14
226    0.00019373772
227    -5.91258052e-05
228    -1.38510869e-05
229    -3.69080449e-14
230    -0.00192129097
231    0.000379436006
232    -0.000770558415
233    -1.41753921e-14
234    -2.04189267e-05
235    2.09220999e-16
236    -4.10659037e-06
237    2.54087483e-17
238    -2.3838897e-05
239    3.51193022e-11
240    2.75890395e-10
241    1.40094436e-09
242    1.71804808e-09
243    -6.63834254e-08
244    -1.07988519e-06
245    2.90718865e-07
246    1.28699466e-06
247    -4.93442322e-08
248    4.49263525e-16
249    -6.30770486e-08
250    -1.35091223e-05
251    1.0472547e-06
252    5.43126307e-16
253    0.000236689986
254    -0.000144723145
255    7.93364638e-05
256    5.27396348e-15
257    0.00307499574
258    -0.000723656721
259    0.000413188796
260    -5.28392905e-14
261    -0.0001153035
262    -0.000110710442
263    -0.000282352381
264    -2.88663846e-14
265    5.77407961e-06
266    -3.09118465e-16
267    1.28830492e-06
268    -6.45470625e-16
269    3.09345334e-07
270    5.9348625e-07
271    2.44087031e-05
272    5.53422309e-05
273    6.99407952e-05
274    -3.62493031e-06
275    2.51596497e-06
276    -1.1881433e-16
[5D]