======= MOLECULAR ORBITALS IN MOLDEN FORMAT =======
[Molden Format]
[Atoms] (Angs)
  C      1    6     -0.00714236     -1.70213747     -0.00000000
  H      2    1     -2.06882847     -1.44022412      0.00000000
  H      3    1     -0.12337987     -2.77567521      0.00000000
  H      4    1      0.04651892      1.98813947     -0.00000000
  C      5    6     -1.21953563      0.40211669      0.00000000
  O      6    8     -2.25921553      1.03043814      0.00000000
  C      7    6      1.28797806      0.34644937     -0.00000000
  O      8    8      2.31273661      1.00537216     -0.00000000
  N      9    7      0.03446295      0.97739857     -0.00000000
  N     10    7     -1.17287765     -0.98229824      0.00000000
  C     11    6      1.20107039     -1.10433419     -0.00000000
  H     12    1      2.11220096     -1.67699125     -0.00000000
[GTO]
1    0
S    1    1.000000
   4.56324000E+03    1.96665000E-03 
S    1    1.000000
   6.82024000E+02    1.52306000E-02 
S    1    1.000000
   1.54973000E+02    7.61269000E-02 
S    1    1.000000
   4.44553000E+01    2.60801000E-01 
S    1    1.000000
   1.30290000E+01    6.16462000E-01 
S    1    1.000000
   1.82773000E+00    2.21006000E-01 
SP   3    1.000000
   2.09642000E+01    1.14660000E-01   4.02487000E-02 
   4.80331000E+00    9.19999000E-01   2.37594000E-01 
   1.45933000E+00   -3.03068000E-03   8.15854000E-01 
SP   1    1.000000
   4.83456000E-01    1.00000000E+00   1.00000000E+00 
SP   1    1.000000
   1.45585000E-01    1.00000000E+00   1.00000000E+00 
SP   1    1.000000
   4.38000000E-02    1.00000000E+00   1.00000000E+00 
SP   1    1.000000
   1.31927711E-02    1.00000000E+00   1.00000000E+00 
D    1    1.000000
   6.26000000E-01    1.00000000E+00 

2    0
S    3    1.000000
   3.38650000E+01    2.54938000E-02 
   5.09479000E+00    1.90373000E-01 
   1.15879000E+00    8.52161000E-01 
S    1    1.000000
   3.25840000E-01    1.00000000E+00 
S    1    1.000000
   1.02741000E-01    1.00000000E+00 
S    1    1.000000
   3.60000000E-02    1.00000000E+00 
P    1    1.000000
   7.50000000E-01    1.00000000E+00 

3    0
S    3    1.000000
   3.38650000E+01    2.54938000E-02 
   5.09479000E+00    1.90373000E-01 
   1.15879000E+00    8.52161000E-01 
S    1    1.000000
   3.25840000E-01    1.00000000E+00 
S    1    1.000000
   1.02741000E-01    1.00000000E+00 
S    1    1.000000
   3.60000000E-02    1.00000000E+00 
P    1    1.000000
   7.50000000E-01    1.00000000E+00 

4    0
S    3    1.000000
   3.38650000E+01    2.54938000E-02 
   5.09479000E+00    1.90373000E-01 
   1.15879000E+00    8.52161000E-01 
S    1    1.000000
   3.25840000E-01    1.00000000E+00 
S    1    1.000000
   1.02741000E-01    1.00000000E+00 
S    1    1.000000
   3.60000000E-02    1.00000000E+00 
P    1    1.000000
   7.50000000E-01    1.00000000E+00 

5    0
S    1    1.000000
   4.56324000E+03    1.96665000E-03 
S    1    1.000000
   6.82024000E+02    1.52306000E-02 
S    1    1.000000
   1.54973000E+02    7.61269000E-02 
S    1    1.000000
   4.44553000E+01    2.60801000E-01 
S    1    1.000000
   1.30290000E+01    6.16462000E-01 
S    1    1.000000
   1.82773000E+00    2.21006000E-01 
SP   3    1.000000
   2.09642000E+01    1.14660000E-01   4.02487000E-02 
   4.80331000E+00    9.19999000E-01   2.37594000E-01 
   1.45933000E+00   -3.03068000E-03   8.15854000E-01 
SP   1    1.000000
   4.83456000E-01    1.00000000E+00   1.00000000E+00 
SP   1    1.000000
   1.45585000E-01    1.00000000E+00   1.00000000E+00 
SP   1    1.000000
   4.38000000E-02    1.00000000E+00   1.00000000E+00 
SP   1    1.000000
   1.31927711E-02    1.00000000E+00   1.00000000E+00 
D    1    1.000000
   6.26000000E-01    1.00000000E+00 

6    0
S    6    1.000000
   8.58850000E+03    1.89515000E-03 
   1.29723000E+03    1.43859000E-02 
   2.99296000E+02    7.07320000E-02 
   8.73771000E+01    2.40001000E-01 
   2.56789000E+01    5.94797000E-01 
   3.74004000E+00    2.80802000E-01 
SP   3    1.000000
   4.21175000E+01    1.13889000E-01   3.65114000E-02 
   9.62837000E+00    9.20811000E-01   2.37153000E-01 
   2.85332000E+00   -3.27447000E-03   8.19702000E-01 
SP   1    1.000000
   9.05661000E-01    1.00000000E+00   1.00000000E+00 
SP   1    1.000000
   2.55611000E-01    1.00000000E+00   1.00000000E+00 
SP   1    1.000000
   8.45000000E-02    1.00000000E+00   1.00000000E+00 
SP   1    1.000000
   2.54518072E-02    1.00000000E+00   1.00000000E+00 
D    1    1.000000
   1.29200000E+00    1.00000000E+00 

7    0
S    1    1.000000
   4.56324000E+03    1.96665000E-03 
S    1    1.000000
   6.82024000E+02    1.52306000E-02 
S    1    1.000000
   1.54973000E+02    7.61269000E-02 
S    1    1.000000
   4.44553000E+01    2.60801000E-01 
S    1    1.000000
   1.30290000E+01    6.16462000E-01 
S    1    1.000000
   1.82773000E+00    2.21006000E-01 
SP   3    1.000000
   2.09642000E+01    1.14660000E-01   4.02487000E-02 
   4.80331000E+00    9.19999000E-01   2.37594000E-01 
   1.45933000E+00   -3.03068000E-03   8.15854000E-01 
SP   1    1.000000
   4.83456000E-01    1.00000000E+00   1.00000000E+00 
SP   1    1.000000
   1.45585000E-01    1.00000000E+00   1.00000000E+00 
SP   1    1.000000
   4.38000000E-02    1.00000000E+00   1.00000000E+00 
SP   1    1.000000
   1.31927711E-02    1.00000000E+00   1.00000000E+00 
D    1    1.000000
   6.26000000E-01    1.00000000E+00 

8    0
S    6    1.000000
   8.58850000E+03    1.89515000E-03 
   1.29723000E+03    1.43859000E-02 
   2.99296000E+02    7.07320000E-02 
   8.73771000E+01    2.40001000E-01 
   2.56789000E+01    5.94797000E-01 
   3.74004000E+00    2.80802000E-01 
SP   3    1.000000
   4.21175000E+01    1.13889000E-01   3.65114000E-02 
   9.62837000E+00    9.20811000E-01   2.37153000E-01 
   2.85332000E+00   -3.27447000E-03   8.19702000E-01 
SP   1    1.000000
   9.05661000E-01    1.00000000E+00   1.00000000E+00 
SP   1    1.000000
   2.55611000E-01    1.00000000E+00   1.00000000E+00 
SP   1    1.000000
   8.45000000E-02    1.00000000E+00   1.00000000E+00 
SP   1    1.000000
   2.54518072E-02    1.00000000E+00   1.00000000E+00 
D    1    1.000000
   1.29200000E+00    1.00000000E+00 

9    0
S    6    1.000000
   6.29348000E+03    1.96979000E-03 
   9.49044000E+02    1.49613000E-02 
   2.18776000E+02    7.35006000E-02 
   6.36916000E+01    2.48937000E-01 
   1.88282000E+01    6.02460000E-01 
   2.72023000E+00    2.56202000E-01 
SP   3    1.000000
   3.06331000E+01    1.11906000E-01   3.83119000E-02 
   7.02614000E+00    9.21666000E-01   2.37403000E-01 
   2.11205000E+00   -2.56919000E-03   8.17592000E-01 
SP   1    1.000000
   6.84009000E-01    1.00000000E+00   1.00000000E+00 
SP   1    1.000000
   2.00878000E-01    1.00000000E+00   1.00000000E+00 
SP   1    1.000000
   6.39000000E-02    1.00000000E+00   1.00000000E+00 
SP   1    1.000000
   1.92469880E-02    1.00000000E+00   1.00000000E+00 
D    1    1.000000
   9.13000000E-01    1.00000000E+00 

10    0
S    6    1.000000
   6.29348000E+03    1.96979000E-03 
   9.49044000E+02    1.49613000E-02 
   2.18776000E+02    7.35006000E-02 
   6.36916000E+01    2.48937000E-01 
   1.88282000E+01    6.02460000E-01 
   2.72023000E+00    2.56202000E-01 
SP   3    1.000000
   3.06331000E+01    1.11906000E-01   3.83119000E-02 
   7.02614000E+00    9.21666000E-01   2.37403000E-01 
   2.11205000E+00   -2.56919000E-03   8.17592000E-01 
SP   1    1.000000
   6.84009000E-01    1.00000000E+00   1.00000000E+00 
SP   1    1.000000
   2.00878000E-01    1.00000000E+00   1.00000000E+00 
SP   1    1.000000
   6.39000000E-02    1.00000000E+00   1.00000000E+00 
SP   1    1.000000
   1.92469880E-02    1.00000000E+00   1.00000000E+00 
D    1    1.000000
   9.13000000E-01    1.00000000E+00 

11    0
S    1    1.000000
   4.56324000E+03    1.96665000E-03 
S    1    1.000000
   6.82024000E+02    1.52306000E-02 
S    1    1.000000
   1.54973000E+02    7.61269000E-02 
S    1    1.000000
   4.44553000E+01    2.60801000E-01 
S    1    1.000000
   1.30290000E+01    6.16462000E-01 
S    1    1.000000
   1.82773000E+00    2.21006000E-01 
SP   3    1.000000
   2.09642000E+01    1.14660000E-01   4.02487000E-02 
   4.80331000E+00    9.19999000E-01   2.37594000E-01 
   1.45933000E+00   -3.03068000E-03   8.15854000E-01 
SP   1    1.000000
   4.83456000E-01    1.00000000E+00   1.00000000E+00 
SP   1    1.000000
   1.45585000E-01    1.00000000E+00   1.00000000E+00 
SP   1    1.000000
   4.38000000E-02    1.00000000E+00   1.00000000E+00 
SP   1    1.000000
   1.31927711E-02    1.00000000E+00   1.00000000E+00 
D    1    1.000000
   6.26000000E-01    1.00000000E+00 

12    0
S    3    1.000000
   3.38650000E+01    2.54938000E-02 
   5.09479000E+00    1.90373000E-01 
   1.15879000E+00    8.52161000E-01 
S    1    1.000000
   3.25840000E-01    1.00000000E+00 
S    1    1.000000
   1.02741000E-01    1.00000000E+00 
S    1    1.000000
   3.60000000E-02    1.00000000E+00 
P    1    1.000000
   7.50000000E-01    1.00000000E+00 

[MO]
Sym=X
Ene= -20.550443
Spin=Alpha
Occup=1
     1   -1.397753694539e-10
     2   -6.392405959455e-09
     3    6.195110441098e-09
     4   -1.348163446163e-07
     5    8.094195405995e-07
     6    3.173628248695e-06
     7   -2.597376779515e-06
     8   -2.689160718168e-06
     9    3.499355377287e-06
    10   -1.918405841351e-17
    11   -2.936024562527e-06
    12    1.218850975727e-05
    13   -1.467738485774e-05
    14   -1.274977065604e-15
    15   -3.166565774756e-04
    16    8.334086770388e-07
    17   -1.530145134297e-04
    18    2.416066888117e-15
    19   -3.176908886904e-03
    20    1.292323416922e-04
    21   -1.302739695259e-03
    22   -1.425945485567e-14
    23   -2.053500063307e-04
    24   -3.540262373522e-04
    25    2.754720896662e-04
    26    3.360057274965e-14
    27    2.379650417891e-06
    28   -1.952520501277e-16
    29   -1.313283613426e-16
    30    2.740400923706e-07
    31    2.114721064395e-06
    32    2.805094670716e-06
    33    5.536668501445e-05
    34   -8.657154523897e-06
    35    1.827965505987e-04
    36    9.809994242511e-06
    37   -8.451043681271e-06
    38    8.758186521735e-17
    39   -9.296020788005e-07
    40   -3.729408814309e-06
    41   -9.732176420459e-05
    42   -8.299931460880e-04
    43   -1.070309497591e-06
    44   -1.277785141210e-06
    45   -4.831100491530e-16
    46    1.738676960769e-06
    47    6.334726990282e-05
    48   -7.966052488961e-05
    49    2.472057973682e-04
    50    1.077844574408e-05
    51   -4.516256976888e-06
    52    1.617497323466e-16
    53   -8.088296455461e-09
    54   -1.392310332254e-07
    55   -2.070859684196e-07
    56   -3.408593344268e-06
    57   -2.221831167242e-06
    58   -9.286524639300e-05
    59   -2.821201333597e-05
    60   -5.613251612041e-05
    61    3.439549238376e-05
    62    4.298989670099e-16
    63    4.525565153687e-04
    64   -3.833036703858e-04
    65    2.309556177993e-04
    66    1.080161919044e-15
    67   -7.762470576371e-04
    68   -1.549318937075e-04
    69    9.617314585476e-05
    70   -2.966631878663e-16
    71   -2.858060779124e-03
    72    2.954371189238e-03
    73   -1.873273095124e-03
    74   -4.576181713684e-15
    75    1.081370986194e-03
    76    4.344049379033e-06
    77    3.177553786374e-04
    78   -1.661497882885e-14
    79   -6.139344077339e-05
    80   -1.507393489114e-16
    81    8.404472883429e-17
    82    9.476360862353e-05
    83   -1.815920204770e-04
    84    5.514789234316e-01
    85    4.716750701082e-01
    86    1.572010209910e-03
    87   -9.624828942853e-04
    88    1.511587114741e-16
    89    5.552077016525e-03
    90   -6.675891094261e-04
    91    4.075275102095e-04
    92    5.211081101304e-16
    93   -1.372189770920e-03
    94    2.552827263648e-04
    95   -1.576607334890e-04
    96    1.470163391345e-15
    97    3.365838638970e-03
    98    1.942826701334e-04
    99   -1.145605022367e-04
   100   -1.057745800812e-15
   101    8.672838611909e-03
   102    1.636569017747e-03
   103   -8.527439859181e-04
   104    6.851297630814e-15
   105   -8.368415974001e-05
   106    1.415245782641e-17
   107    4.611253487471e-17
   108   -4.053140691388e-05
   109    7.282260459195e-05
   110   -1.532530126579e-10
   111   -5.933373190506e-09
   112    4.414578139026e-09
   113   -1.237840729207e-07
   114    7.300424348160e-07
   115    2.957303451272e-06
   116   -2.396442712654e-06
   117   -3.185817342199e-06
   118    5.967875001744e-07
   119   -7.831412627975e-16
   120   -1.415832384721e-06
   121    1.525488995188e-05
   122   -2.394744457926e-06
   123    1.041047913633e-15
   124   -1.601160601225e-04
   125    2.546625730997e-04
   126    1.040805470037e-04
   127   -2.244949315169e-15
   128   -2.167897056564e-03
   129    1.231296640806e-03
   130    1.770763519976e-04
   131   -1.577129230189e-14
   132   -3.427256312543e-04
   133    1.128485205329e-04
   134   -1.997947689193e-04
   135    2.240720612062e-14
   136    1.873176241879e-06
   137   -2.051373908596e-16
   138   -5.957514142772e-17
   139   -3.568987722547e-06
   140    3.372219872219e-06
   141   -1.416312809979e-05
   142   -1.223835924420e-05
   143    1.155611155745e-06
   144   -3.821453906227e-07
   145   -3.836203259917e-16
   146    2.864140884563e-06
   147   -2.829717342151e-06
   148    7.645018907509e-07
   149   -1.435500986538e-16
   150   -5.373441418888e-05
   151    3.306945800882e-05
   152    1.355070663078e-05
   153   -2.135415714821e-15
   154   -3.848342396143e-04
   155    3.749877636729e-05
   156    8.019464336388e-05
   157    3.808126410660e-15
   158   -2.239553422174e-03
   159    3.262417353984e-04
   160    8.812639331438e-05
   161   -2.253509364920e-15
   162    1.017759008146e-06
   163    1.807955487616e-16
   164    1.822823883823e-16
   165   -1.556987826401e-07
   166   -8.619100782285e-07
   167    4.099223598715e-07
   168    4.878924176970e-07
   169    1.122551750274e-05
   170   -2.124473748913e-06
   171    3.934175459793e-16
   172   -1.268075144756e-05
   173   -3.399829607197e-05
   174    7.588079780983e-06
   175    6.141841509524e-16
   176    2.413247045334e-04
   177    4.904519609856e-05
   178   -2.292102894835e-04
   179   -4.056190741367e-16
   180    6.894706322778e-04
   181    8.382009407581e-05
   182    1.128720322870e-04
   183    7.914151714947e-15
   184   -1.760796022743e-03
   185    2.449682112321e-03
   186   -1.626621756797e-04
   187    3.719924400015e-15
   188   -3.416670583547e-06
   189   -2.581859793859e-16
   190   -9.398963858310e-17
   191    2.141144366364e-05
   192    2.450198894524e-06
   193    5.149028133016e-07
   194    2.592297704019e-07
   195    6.239336650475e-06
   196   -9.346077546520e-06
   197    2.802670695979e-16
   198   -9.854534054162e-06
   199   -1.873320352628e-05
   200    2.713921438294e-05
   201   -2.508781078114e-16
   202    2.067158519910e-04
   203    2.128105325070e-04
   204    5.710686490509e-05
   205   -1.131009576872e-15
   206    6.266991768464e-04
   207    4.708948699897e-05
   208   -3.043680833445e-05
   209    6.801597350177e-15
   210   -2.267363627176e-03
   211    5.244920095428e-04
   212   -9.087397581779e-04
   213   -5.002374920065e-15
   214   -3.636650592739e-06
   215   -6.828115646509e-17
   216    1.783832253808e-16
   217   -1.451608427991e-05
   218   -1.421224000592e-05
   219    1.070284569019e-10
   220   -5.947763551354e-10
   221    7.364044058843e-09
   222   -1.632775406434e-08
   223    2.696952356009e-07
   224    1.000347049649e-06
   225   -6.039693143599e-07
   226    4.548587253249e-07
   227   -4.086462897619e-07
   228   -6.348495991730e-16
   229   -3.597984080344e-06
   230   -6.052691217194e-06
   231    4.474534163175e-06
   232    8.823626910532e-16
   233    2.325582854394e-04
   234   -1.498246271211e-04
   235    7.162225870061e-05
   236   -4.237047591083e-15
   237    2.763223806757e-03
   238   -6.989488655727e-04
   239    3.496463675817e-04
   240    1.854301186977e-14
   241    1.050601753140e-04
   242   -6.281469839512e-05
   243   -3.236801299692e-04
   244   -3.987912023710e-14
   245    2.425293419168e-06
   246   -8.972686684592e-17
   247   -5.789775817184e-17
   248   -2.120280786031e-07
   249    7.095862028033e-07
   250    2.382789799470e-08
   251    1.873118023006e-05
   252    6.707226813385e-05
   253   -3.491869378797e-05
   254   -2.101004520378e-06
   255    2.050456463996e-06
   256   -8.150391220832e-18
Sym=X
Ene= -20.544939
Spin=Alpha
Occup=1
     1    1.271342180074e-09
     2   -6.465272588778e-09
     3    8.670884397113e-08
     4   -1.761632042276e-07
     5    3.198524418543e-06
     6    1.228263662804e-05
     7   -6.946584886103e-06
     8   -2.972546650799e-06
     9    8.053201515933e-09
    10   -3.871410361779e-17
    11   -3.880370156729e-05
    12    8.189329931760e-06
    13   -3.461805942016e-06
    14   -2.780849245371e-16
    15    6.527229197859e-04
    16    9.215785470750e-05
    17    2.883104054511e-04
    18   -2.240098365436e-15
    19   -2.158551091156e-03
    20   -5.996757706900e-04
    21    4.648080126925e-04
    22    1.305665524810e-14
    23   -7.000466110702e-04
    24   -3.326887875095e-04
    25   -9.192391596153e-05
    26   -6.055017481318e-14
    27   -4.054999901139e-06
    28   -8.450327088729e-16
    29   -9.827129344899e-16
    30    3.703509149898e-06
    31   -5.105849360800e-06
    32    9.379902648679e-07
    33   -3.267685605988e-05
    34    9.580968503916e-06
    35   -1.545667225375e-04
    36   -1.089034547393e-06
    37   -3.150183044467e-06
    38   -1.923482044860e-16
    39    2.960367287745e-06
    40   -5.377044382889e-06
    41    1.944660438387e-04
    42    4.839653212631e-04
    43   -4.524513655518e-06
    44   -4.880306726956e-08
    45   -5.402218048032e-16
    46   -3.540352971650e-06
    47   -5.283082251382e-05
    48   -4.665038565018e-05
    49   -1.497101283725e-04
    50    8.236918245409e-06
    51    3.620965480855e-06
    52    1.159038059313e-16
    53    1.614698291787e-10
    54    7.124803835208e-09
    55   -6.589574324861e-09
    56    1.490341421964e-07
    57   -9.202647408213e-07
    58   -3.772428115993e-06
    59    2.963517751926e-06
    60   -5.076137515381e-06
    61   -1.270238002417e-07
    62   -1.041262207903e-15
    63   -2.259315461437e-07
    64    2.405620843871e-05
    65   -9.023216443023e-07
    66   -4.826682835685e-16
    67    2.838760914408e-04
    68    2.756477194964e-04
    69   -8.299807216632e-05
    70   -2.825144008019e-15
    71    1.493435509949e-03
    72    1.232226288692e-03
    73    5.101101669231e-05
    74    8.592222662274e-15
    75    9.600386839109e-04
    76    2.692208472754e-04
    77    5.387959543367e-04
    78    4.098604424425e-14
    79   -4.367948791702e-06
    80    7.481874023178e-16
    81    3.070247296521e-16
    82    4.207589451426e-06
    83    1.732769997358e-06
    84   -1.425870824866e-05
    85   -1.226699596490e-05
    86    1.178896401669e-06
    87    1.071677448778e-06
    88   -2.725501326899e-16
    89   -1.239744399960e-06
    90   -3.028599167144e-06
    91   -3.288030826318e-06
    92   -1.066215506646e-15
    93    4.193914706589e-05
    94    2.762169245876e-05
    95   -4.488964314557e-06
    96   -1.817934405895e-15
    97    3.733329210283e-04
    98    2.590680127549e-05
    99   -9.573000429538e-05
   100    1.131471197430e-15
   101    2.263959606599e-03
   102    3.225311804904e-04
   103   -6.327566762453e-05
   104   -1.780209391739e-14
   105   -7.703767924151e-07
   106   -2.632224895680e-16
   107   -3.687343005608e-16
   108    2.910587347973e-09
   109   -7.608846883954e-07
   110    7.036656840130e-09
   111    1.305131037007e-07
   112    1.658573188777e-07
   113    3.233489936465e-06
   114    1.611816442875e-06
   115    8.723759736730e-05
   116    2.788916262029e-05
   117   -5.300082843789e-05
   118   -3.802293376868e-05
   119    5.063563106149e-16
   120   -4.262107686985e-04
   121   -3.658355491268e-04
   122   -2.390634061059e-04
   123    1.079537803550e-15
   124    7.257637105563e-04
   125   -2.716127672610e-04
   126   -2.075542279867e-04
   127    2.537525496204e-15
   128    1.423927256531e-03
   129    3.588239906239e-03
   130    1.562032687369e-03
   131    5.848243319399e-15
   132   -7.301940053770e-05
   133    4.535102165902e-04
   134   -9.294974417020e-04
   135   -6.081311170505e-14
   136    5.774949759186e-05
   137    1.035046283020e-15
   138    1.637686007125e-16
   139   -8.577440925062e-05
   140   -1.902646561069e-04
   141   -5.514844897942e-01
   142   -4.716790229473e-01
   143    1.538023872341e-03
   144    9.244151983720e-04
   145    3.861993034874e-16
   146   -5.531143469314e-03
   147   -6.550752191630e-04
   148   -3.891741917458e-04
   149    1.005583360557e-15
   150    1.409084071417e-03
   151    2.448121206389e-04
   152    1.290282946243e-04
   153    5.672843660240e-16
   154   -3.177133949906e-03
   155    1.060820620298e-04
   156    1.362414740217e-04
   157   -4.171901671775e-16
   158   -7.435929176077e-03
   159    1.407015947201e-03
   160    4.914047596618e-04
   161    1.094277835197e-14
   162    1.150443217315e-04
   163    1.337454301757e-16
   164    1.200658729030e-16
   165    3.955080039603e-05
   166    7.911481769654e-05
   167   -4.859534853109e-07
   168   -1.514311939050e-06
   169    1.123423262076e-05
   170    4.070908665306e-07
   171    5.361663020943e-16
   172    2.569424313664e-05
   173   -3.246436228125e-05
   174   -3.790559671463e-06
   175   -4.798023351152e-16
   176   -3.247783136715e-04
   177    8.427525637982e-05
   178    2.528955156371e-04
   179    1.066224992921e-15
   180   -1.490868789658e-04
   181    2.786302543518e-04
   182   -2.772676181846e-06
   183   -4.262909424645e-15
   184    2.633913300584e-03
   185    3.142484132183e-03
   186   -2.480959310112e-05
   187   -2.393005991238e-15
   188    6.306397114377e-06
   189    7.210226088126e-16
   190    5.262524282147e-17
   191   -1.940527601836e-05
   192    7.510128876571e-06
   193   -1.298378186619e-08
   194   -1.439423619338e-07
   195   -2.746603556904e-07
   196   -2.582360381302e-07
   197    1.539332584374e-16
   198    4.934364733888e-06
   199    2.154732979927e-07
   200    1.483781267117e-06
   201   -2.230006922221e-15
   202   -1.507008764355e-04
   203   -1.211429558598e-04
   204   -4.607629169412e-05
   205    1.440602760506e-15
   206   -8.492269902493e-04
   207   -2.960667373343e-04
   208   -2.898153807638e-05
   209   -9.275844565596e-15
   210    1.241347029269e-04
   211   -3.648167475096e-04
   212    2.509384745721e-04
   213    5.352318101665e-15
   214   -1.370942142259e-06
   215    2.158918837573e-16
   216    2.179002489627e-16
   217    1.666550586430e-06
   218    1.600852954991e-06
   219   -2.462486715969e-09
   220   -5.664775908129e-09
   221   -1.289681802245e-07
   222   -3.527065135699e-08
   223   -2.655309692686e-06
   224   -5.661058822649e-06
   225    2.455321637386e-06
   226    2.565790689985e-06
   227    1.116044911313e-05
   228    7.031973976741e-16
   229    3.244014318915e-05
   230    5.593155000500e-07
   231   -5.412559834791e-05
   232   -3.348127283995e-16
   233   -6.551839765141e-04
   234    4.522934202242e-04
   235   -1.111235036618e-04
   236    4.337467229346e-15
   237    3.051896496463e-03
   238   -1.915116835283e-03
   239   -2.335741392476e-04
   240   -1.620506673406e-14
   241   -5.306358689395e-04
   242   -3.518466283470e-04
   243   -1.204869955351e-04
   244    7.895032105161e-14
   245    4.150342873552e-06
   246   -1.521169696831e-15
   247   -7.844834853229e-17
   248    2.547690893564e-05
   249   -2.268780618823e-05
   250    2.237664939094e-06
   251   -1.020027790508e-04
   252   -3.647406145936e-05
   253    1.145525781183e-03
   254    1.244737647856e-05
   255   -6.211402342847e-06
   256    9.145469525788e-16
Sym=X
Ene= -15.648034
Spin=Alpha
Occup=1
     1    2.959620733373e-08
     2    1.435217758084e-07
     3    1.278728397100e-06
     4    1.740588612794e-06
     5    2.007305244369e-05
     6    1.322617754369e-05
     7   -4.132768033802e-05
     8   -8.501338018781e-05
     9    4.249819379973e-05
    10    2.031585128252e-15
    11    2.072694668846e-04
    12   -1.853323958559e-04
    13    1.758312261198e-04
    14   -2.460093130167e-15
    15    8.712288349540e-04
    16    3.892747926693e-05
    17    8.680664949212e-04
    18    6.157303964456e-16
    19   -1.330957206779e-03
    20    1.687537841628e-04
    21   -1.324034663461e-03
    22    1.272889845457e-14
    23   -2.513732264578e-05
    24    5.325186569571e-04
    25   -6.139961488296e-04
    26   -2.335352367467e-13
    27    2.885393255519e-07
    28    2.524379426290e-16
    29   -8.471862186605e-16
    30    3.664066739900e-05
    31   -9.592059745216e-05
    32    2.570922967620e-04
    33   -3.270702878820e-04
    34    6.130705276309e-04
    35    4.312582875269e-04
    36   -5.248928321760e-05
    37   -3.896740464850e-05
    38   -7.345807299664e-16
    39   -1.429395479328e-05
    40    2.186467194583e-04
    41    1.193304104198e-04
    42   -1.411722412675e-03
    43    5.564319292576e-06
    44    4.129255500168e-05
    45    2.265588583057e-16
    46   -1.745605671475e-06
    47   -8.763780117406e-05
    48   -4.682697605215e-04
    49   -9.153747052753e-04
    50    1.932386180549e-06
    51    5.123667136718e-06
    52   -4.854062226662e-16
    53    2.597806922231e-08
    54    1.256579628145e-07
    55    1.114849180353e-06
    56    1.517775689232e-06
    57    1.814166881875e-05
    58    1.530085394988e-05
    59   -4.163475993686e-05
    60   -6.493658812911e-06
    61   -9.770534143703e-05
    62   -1.930363993077e-15
    63    2.043854596974e-04
    64    5.034088594409e-05
    65   -2.058408003063e-04
    66    4.173422004341e-15
    67    4.121495233236e-04
    68    8.713717210562e-04
    69   -7.993454370677e-04
    70   -7.593728136427e-15
    71   -8.369059249886e-04
    72    2.641630294495e-04
    73   -2.159852028851e-04
    74    3.019009647007e-15
    75   -2.509539460034e-05
    76   -3.539899014251e-04
    77   -5.236128920263e-04
    78    1.380378540669e-13
    79    9.302476087160e-07
    80    3.012107866924e-16
    81    2.872718348111e-17
    82   -8.134001640951e-05
    83   -4.138838620299e-05
    84    3.276130709108e-06
    85    6.840465175271e-06
    86    1.508230453947e-06
    87    1.170245386918e-05
    88   -1.371246788147e-15
    89   -3.954446082750e-05
    90   -8.667710374544e-06
    91   -4.065873405011e-06
    92    2.747359244897e-15
    93    3.679561765324e-04
    94    1.531672704198e-04
    95   -1.922570897998e-05
    96   -8.096478561113e-15
    97    9.710490763158e-04
    98    1.999007772904e-04
    99   -1.314533323437e-04
   100    1.991135894452e-14
   101    9.432944245119e-04
   102    1.387612321322e-04
   103   -1.592354322000e-04
   104   -6.795291040855e-14
   105   -3.534849231179e-06
   106    2.138925087639e-17
   107    2.625534728712e-16
   108   -1.913269247076e-06
   109   -5.187829071617e-06
   110    1.255891977204e-09
   111   -1.552747176980e-08
   112    1.073782899870e-07
   113   -3.639086248330e-07
   114    5.033991624059e-06
   115    2.067996942902e-05
   116   -1.184035938373e-05
   117    6.662943802383e-06
   118    2.146820437507e-06
   119    1.376563310526e-15
   120   -8.060210684870e-05
   121   -2.964530654022e-05
   122   -5.301579768586e-06
   123   -2.431216508071e-15
   124    1.316735021815e-03
   125   -5.460975279178e-04
   126   -3.396278247797e-04
   127    3.495248471714e-15
   128    3.760184670923e-03
   129   -1.218215185963e-03
   130   -8.282096975991e-04
   131    3.197552704369e-15
   132   -3.673828471968e-05
   133   -8.120587019873e-04
   134    1.376137449383e-04
   135   -2.462023671373e-13
   136   -1.609051152674e-05
   137   -1.067570229676e-15
   138    9.448066969114e-18
   139    3.451541668042e-06
   140   -6.117962638635e-06
   141   -9.445055855945e-08
   142   -1.168107948038e-07
   143   -1.039695321381e-07
   144    2.170759267007e-07
   145   -5.187230914668e-16
   146   -3.073769807111e-06
   147    1.128757429784e-07
   148   -1.528510134613e-06
   149   -3.314690983219e-17
   150    7.166684773937e-05
   151   -9.345232688138e-06
   152   -2.352854217524e-06
   153    3.546383298206e-15
   154    1.950764171053e-04
   155    2.653257158399e-05
   156    2.121924096922e-05
   157   -7.990034590550e-15
   158    6.974311329600e-04
   159   -1.217018624145e-05
   160    7.714280387179e-05
   161    3.032848848343e-14
   162    2.545026773323e-07
   163   -3.716324699672e-16
   164   -3.084458807367e-16
   165    9.461477165202e-07
   166    4.680457525490e-07
   167   -3.388873408171e-04
   168   -2.869723856933e-04
   169    6.575464354602e-06
   170    1.193193655105e-05
   171   -1.268500063766e-16
   172    2.993266789744e-05
   173   -4.117027434908e-06
   174   -3.128052228781e-05
   175    5.712205593634e-16
   176   -5.085961555858e-04
   177   -1.174615116584e-04
   178    5.309038547482e-04
   179    2.107264141948e-15
   180   -2.050016198191e-03
   181   -1.314386765172e-04
   182    1.412777828847e-03
   183   -3.485684335567e-15
   184   -1.897054694939e-03
   185   -4.082937015343e-04
   186    7.392762310895e-04
   187    3.048227653361e-14
   188   -6.336745752903e-06
   189    2.356562611025e-16
   190    6.576997403787e-16
   191   -3.338022449059e-06
   192    5.590031730958e-06
   193    5.575593958690e-01
   194    4.681648565137e-01
   195    1.761783600094e-04
   196   -1.237627575673e-06
   197   -1.883499535864e-15
   198    5.678626410945e-03
   199   -9.195019267213e-05
   200    3.422844058104e-05
   201    2.932044075047e-15
   202   -2.182409406193e-03
   203   -6.426241680523e-04
   204   -4.335870277676e-04
   205   -6.455290837654e-17
   206    2.002583037207e-03
   207    1.151381347490e-03
   208    4.807957827163e-04
   209   -1.165999235697e-15
   210    1.989602511454e-03