[Molden Format]
[Atoms] (Angs)
  C      1    6     -0.00714236     -1.70213747     -0.00000000
  H      2    1     -2.06882847     -1.44022412      0.00000000
  H      3    1     -0.12337987     -2.77567521      0.00000000
  H      4    1      0.04651892      1.98813947     -0.00000000
  C      5    6     -1.21953563      0.40211669      0.00000000
  O      6    8     -2.25921553      1.03043814      0.00000000
  C      7    6      1.28797806      0.34644937     -0.00000000
  O      8    8      2.31273661      1.00537216     -0.00000000
  N      9    7      0.03446295      0.97739857     -0.00000000
  N     10    7     -1.17287765     -0.98229824      0.00000000
  C     11    6      1.20107039     -1.10433419     -0.00000000
  H     12    1      2.11220096     -1.67699125     -0.00000000
[GTO]
1    0
S    1    1.000000
   4.56324000E+03    1.96665000E-03 
S    1    1.000000
   6.82024000E+02    1.52306000E-02 
S    1    1.000000
   1.54973000E+02    7.61269000E-02 
S    1    1.000000
   4.44553000E+01    2.60801000E-01 
S    1    1.000000
   1.30290000E+01    6.16462000E-01 
S    1    1.000000
   1.82773000E+00    2.21006000E-01 
SP   3    1.000000
   2.09642000E+01    1.14660000E-01   4.02487000E-02 
   4.80331000E+00    9.19999000E-01   2.37594000E-01 
   1.45933000E+00   -3.03068000E-03   8.15854000E-01 
SP   1    1.000000
   4.83456000E-01    1.00000000E+00   1.00000000E+00 
SP   1    1.000000
   1.45585000E-01    1.00000000E+00   1.00000000E+00 
SP   1    1.000000
   4.38000000E-02    1.00000000E+00   1.00000000E+00 
SP   1    1.000000
   1.31927711E-02    1.00000000E+00   1.00000000E+00 
D    1    1.000000
   6.26000000E-01    1.00000000E+00 

2    0
S    3    1.000000
   3.38650000E+01    2.54938000E-02 
   5.09479000E+00    1.90373000E-01 
   1.15879000E+00    8.52161000E-01 
S    1    1.000000
   3.25840000E-01    1.00000000E+00 
S    1    1.000000
   1.02741000E-01    1.00000000E+00 
S    1    1.000000
   3.60000000E-02    1.00000000E+00 
P    1    1.000000
   7.50000000E-01    1.00000000E+00 

3    0
S    3    1.000000
   3.38650000E+01    2.54938000E-02 
   5.09479000E+00    1.90373000E-01 
   1.15879000E+00    8.52161000E-01 
S    1    1.000000
   3.25840000E-01    1.00000000E+00 
S    1    1.000000
   1.02741000E-01    1.00000000E+00 
S    1    1.000000
   3.60000000E-02    1.00000000E+00 
P    1    1.000000
   7.50000000E-01    1.00000000E+00 

4    0
S    3    1.000000
   3.38650000E+01    2.54938000E-02 
   5.09479000E+00    1.90373000E-01 
   1.15879000E+00    8.52161000E-01 
S    1    1.000000
   3.25840000E-01    1.00000000E+00 
S    1    1.000000
   1.02741000E-01    1.00000000E+00 
S    1    1.000000
   3.60000000E-02    1.00000000E+00 
P    1    1.000000
   7.50000000E-01    1.00000000E+00 

5    0
S    1    1.000000
   4.56324000E+03    1.96665000E-03 
S    1    1.000000
   6.82024000E+02    1.52306000E-02 
S    1    1.000000
   1.54973000E+02    7.61269000E-02 
S    1    1.000000
   4.44553000E+01    2.60801000E-01 
S    1    1.000000
   1.30290000E+01    6.16462000E-01 
S    1    1.000000
   1.82773000E+00    2.21006000E-01 
SP   3    1.000000
   2.09642000E+01    1.14660000E-01   4.02487000E-02 
   4.80331000E+00    9.19999000E-01   2.37594000E-01 
   1.45933000E+00   -3.03068000E-03   8.15854000E-01 
SP   1    1.000000
   4.83456000E-01    1.00000000E+00   1.00000000E+00 
SP   1    1.000000
   1.45585000E-01    1.00000000E+00   1.00000000E+00 
SP   1    1.000000
   4.38000000E-02    1.00000000E+00   1.00000000E+00 
SP   1    1.000000
   1.31927711E-02    1.00000000E+00   1.00000000E+00 
D    1    1.000000
   6.26000000E-01    1.00000000E+00 

6    0
S    1    1.000000
   8.58850000E+03    1.89515000E-03 
S    1    1.000000
   1.29723000E+03    1.43859000E-02 
S    1    1.000000
   2.99296000E+02    7.07320000E-02 
S    1    1.000000
   8.73771000E+01    2.40001000E-01 
S    1    1.000000
   2.56789000E+01    5.94797000E-01 
S    1    1.000000
   3.74004000E+00    2.80802000E-01 
SP   3    1.000000
   4.21175000E+01    1.13889000E-01   3.65114000E-02 
   9.62837000E+00    9.20811000E-01   2.37153000E-01 
   2.85332000E+00   -3.27447000E-03   8.19702000E-01 
SP   1    1.000000
   9.05661000E-01    1.00000000E+00   1.00000000E+00 
SP   1    1.000000
   2.55611000E-01    1.00000000E+00   1.00000000E+00 
SP   1    1.000000
   8.45000000E-02    1.00000000E+00   1.00000000E+00 
SP   1    1.000000
   2.54518072E-02    1.00000000E+00   1.00000000E+00 
D    1    1.000000
   1.29200000E+00    1.00000000E+00 

7    0
S    1    1.000000
   4.56324000E+03    1.96665000E-03 
S    1    1.000000
   6.82024000E+02    1.52306000E-02 
S    1    1.000000
   1.54973000E+02    7.61269000E-02 
S    1    1.000000
   4.44553000E+01    2.60801000E-01 
S    1    1.000000
   1.30290000E+01    6.16462000E-01 
S    1    1.000000
   1.82773000E+00    2.21006000E-01 
SP   3    1.000000
   2.09642000E+01    1.14660000E-01   4.02487000E-02 
   4.80331000E+00    9.19999000E-01   2.37594000E-01 
   1.45933000E+00   -3.03068000E-03   8.15854000E-01 
SP   1    1.000000
   4.83456000E-01    1.00000000E+00   1.00000000E+00 
SP   1    1.000000
   1.45585000E-01    1.00000000E+00   1.00000000E+00 
SP   1    1.000000
   4.38000000E-02    1.00000000E+00   1.00000000E+00 
SP   1    1.000000
   1.31927711E-02    1.00000000E+00   1.00000000E+00 
D    1    1.000000
   6.26000000E-01    1.00000000E+00 

8    0
S    1    1.000000
   8.58850000E+03    1.89515000E-03 
S    1    1.000000
   1.29723000E+03    1.43859000E-02 
S    1    1.000000
   2.99296000E+02    7.07320000E-02 
S    1    1.000000
   8.73771000E+01    2.40001000E-01 
S    1    1.000000
   2.56789000E+01    5.94797000E-01 
S    1    1.000000
   3.74004000E+00    2.80802000E-01 
SP   3    1.000000
   4.21175000E+01    1.13889000E-01   3.65114000E-02 
   9.62837000E+00    9.20811000E-01   2.37153000E-01 
   2.85332000E+00   -3.27447000E-03   8.19702000E-01 
SP   1    1.000000
   9.05661000E-01    1.00000000E+00   1.00000000E+00 
SP   1    1.000000
   2.55611000E-01    1.00000000E+00   1.00000000E+00 
SP   1    1.000000
   8.45000000E-02    1.00000000E+00   1.00000000E+00 
SP   1    1.000000
   2.54518072E-02    1.00000000E+00   1.00000000E+00 
D    1    1.000000
   1.29200000E+00    1.00000000E+00 

9    0
S    1    1.000000
   6.29348000E+03    1.96979000E-03 
S    1    1.000000
   9.49044000E+02    1.49613000E-02 
S    1    1.000000
   2.18776000E+02    7.35006000E-02 
S    1    1.000000
   6.36916000E+01    2.48937000E-01 
S    1    1.000000
   1.88282000E+01    6.02460000E-01 
S    1    1.000000
   2.72023000E+00    2.56202000E-01 
SP   3    1.000000
   3.06331000E+01    1.11906000E-01   3.83119000E-02 
   7.02614000E+00    9.21666000E-01   2.37403000E-01 
   2.11205000E+00   -2.56919000E-03   8.17592000E-01 
SP   1    1.000000
   6.84009000E-01    1.00000000E+00   1.00000000E+00 
SP   1    1.000000
   2.00878000E-01    1.00000000E+00   1.00000000E+00 
SP   1    1.000000
   6.39000000E-02    1.00000000E+00   1.00000000E+00 
SP   1    1.000000
   1.92469880E-02    1.00000000E+00   1.00000000E+00 
D    1    1.000000
   9.13000000E-01    1.00000000E+00 

10    0
S    1    1.000000
   6.29348000E+03    1.96979000E-03 
S    1    1.000000
   9.49044000E+02    1.49613000E-02 
S    1    1.000000
   2.18776000E+02    7.35006000E-02 
S    1    1.000000
   6.36916000E+01    2.48937000E-01 
S    1    1.000000
   1.88282000E+01    6.02460000E-01 
S    1    1.000000
   2.72023000E+00    2.56202000E-01 
SP   3    1.000000
   3.06331000E+01    1.11906000E-01   3.83119000E-02 
   7.02614000E+00    9.21666000E-01   2.37403000E-01 
   2.11205000E+00   -2.56919000E-03   8.17592000E-01 
SP   1    1.000000
   6.84009000E-01    1.00000000E+00   1.00000000E+00 
SP   1    1.000000
   2.00878000E-01    1.00000000E+00   1.00000000E+00 
SP   1    1.000000
   6.39000000E-02    1.00000000E+00   1.00000000E+00 
SP   1    1.000000
   1.92469880E-02    1.00000000E+00   1.00000000E+00 
D    1    1.000000
   9.13000000E-01    1.00000000E+00 

11    0
S    1    1.000000
   4.56324000E+03    1.96665000E-03 
S    1    1.000000
   6.82024000E+02    1.52306000E-02 
S    1    1.000000
   1.54973000E+02    7.61269000E-02 
S    1    1.000000
   4.44553000E+01    2.60801000E-01 
S    1    1.000000
   1.30290000E+01    6.16462000E-01 
S    1    1.000000
   1.82773000E+00    2.21006000E-01 
SP   3    1.000000
   2.09642000E+01    1.14660000E-01   4.02487000E-02 
   4.80331000E+00    9.19999000E-01   2.37594000E-01 
   1.45933000E+00   -3.03068000E-03   8.15854000E-01 
SP   1    1.000000
   4.83456000E-01    1.00000000E+00   1.00000000E+00 
SP   1    1.000000
   1.45585000E-01    1.00000000E+00   1.00000000E+00 
SP   1    1.000000
   4.38000000E-02    1.00000000E+00   1.00000000E+00 
SP   1    1.000000
   1.31927711E-02    1.00000000E+00   1.00000000E+00 
D    1    1.000000
   6.26000000E-01    1.00000000E+00 

12    0
S    3    1.000000
   3.38650000E+01    2.54938000E-02 
   5.09479000E+00    1.90373000E-01 
   1.15879000E+00    8.52161000E-01 
S    1    1.000000
   3.25840000E-01    1.00000000E+00 
S    1    1.000000
   1.02741000E-01    1.00000000E+00 
S    1    1.000000
   3.60000000E-02    1.00000000E+00 
P    1    1.000000
   7.50000000E-01    1.00000000E+00 

[MO]
Sym=X
Ene=0.914977
Spin=Alpha
Occup=1
1    -2.37961115e-07
2    -7.84429625e-07
3    -3.83804189e-06
4    7.41453063e-06
5    0.000101807688
6    -2.94491239e-05
7    2.76616503e-05
8    -1.82195277e-05
9    -4.58329459e-16
10    -0.000308948243
11    0.000425827518
12    -0.000266774506
13    -2.10546696e-15
14    -0.000114805822
15    -3.01148787e-05
16    -0.000163552179
17    -1.03986149e-15
18    0.00195408015
19    -0.000109300265
20    0.00131661861
21    -1.51967958e-14
22    -0.000111248553
23    -0.00027778197
24    0.000435513836
25    -9.79882641e-14
26    0.000241883194
27    -5.79680056e-17
28    5.67677569e-05
29    7.64255837e-16
30    -8.43082011e-05
31    -0.00021948792
32    -0.000183533448
33    -0.000214789833
34    -0.000218992181
35    -0.00010669436
36    -5.26569641e-05
37    -1.46674844e-15
38    -9.33011881e-06
39    -0.000127639208
40    0.000124787397
41    0.00100028488
42    9.6140127e-06
43    -5.58918619e-05
44    -4.68988648e-16
45    -4.95730668e-06
46    1.91277526e-05
47    0.000268922567
48    0.000500883594
49    -7.4128072e-07
50    7.02413301e-07
51    6.65347456e-16
52    -1.72087832e-08
53    -1.97557478e-07
54    -4.57195868e-07
55    -3.25459773e-06
56    1.19191098e-05
57    0.000107884687
58    -3.14077559e-05
59    2.49343505e-06
60    3.08156158e-05
61    -1.55245955e-15
62    -0.000334859061
63    -2.43394231e-05
64    0.000459650528
65    3.6350344e-16
66    -0.000103425912
67    -0.000178973558
68    0.00016155894
69    -6.17289217e-15
70    0.000545770596
71    0.000104899221
72    -0.000195367896
73    -2.82871307e-14
74    0.00070258038
75    0.00031287788
76    0.000213032601
77    3.92880294e-14
78    4.61206787e-05
79    7.89177836e-16
80    6.24434617e-05
81    3.25655094e-16
82    0.000243684494
83    -7.01202452e-09
84    -6.53862555e-08
85    -2.36633449e-07
86    -1.12743795e-06
87    3.47053872e-07
88    9.77702791e-06
89    -1.16034968e-05
90    2.42722879e-06
91    -1.64585526e-05
92    -8.44785795e-16
93    -1.00833253e-05
94    -1.81956177e-05
95    2.67240681e-05
96    8.32079929e-16
97    -0.000117932513
98    -3.99633111e-05
99    3.65232621e-06
100    -6.51019426e-15
101    -5.50909027e-05
102    -7.14883947e-06
103    -1.10694552e-06
104    1.28528007e-14
105    0.00035280266
106    5.09855596e-05
107    4.40284249e-05
108    -2.52602778e-14
109    2.01610853e-05
110    1.63744402e-16
111    3.45250261e-06
112    -5.38372723e-17
113    1.14398253e-05
114    2.76042177e-10
115    -7.13110266e-09
116    3.05029908e-08
117    -1.52450625e-07
118    2.05088531e-06
119    1.07468598e-05
120    -6.04871887e-06
121    -5.32672208e-06
122    -6.10817041e-06
123    1.40472624e-15
124    -5.84752625e-06
125    2.3477479e-05
126    2.94879816e-05
127    2.6978051e-15
128    -0.00049600521
129    5.32066586e-05
130    6.31452669e-06
131    1.91816778e-15
132    -0.00137138726
133    0.000583831883
134    0.00032170422
135    -1.24885001e-14
136    0.000106229711
137    0.000537687859
138    -0.000146820652
139    -8.92948336e-14
140    2.42697942e-06
141    5.89277469e-16
142    9.58998101e-06
143    5.95200043e-16
144    6.33167173e-06
145    5.46914593e-10
146    -2.913613e-09
147    3.66697136e-08
148    -6.83938378e-08
149    1.6158035e-06
150    6.32963055e-06
151    -3.81048357e-06
152    -8.70006714e-07
153    -5.50620518e-07
154    1.22863725e-15
155    -1.42806927e-05
156    5.12156524e-06
157    4.13884203e-06
158    1.86810071e-15
159    4.28424159e-05
160    -2.35610037e-05
161    -1.42252101e-05
162    3.36581366e-15
163    0.00013368078
164    -8.47523263e-05
165    -4.22252915e-05
166    6.08966384e-15
167    -0.000417180357
168    1.68130863e-05
169    -7.75287471e-05
170    4.46708937e-15
171    -7.68796524e-07
172    -1.9178127e-16
173    -3.56470592e-07
174    -5.47570576e-16
175    -1.80754394e-07
176    2.88862575e-07
177    2.16387653e-06
178    1.08541211e-05
179    3.58620097e-05
180    9.54520897e-05
181    6.9868159e-05
182    0.000101201514
183    -1.39933693e-05
184    -1.13857211e-05
185    6.14022866e-16
186    -4.87777813e-05
187    4.58160588e-05
188    3.23829344e-05
189    1.0704766e-15
190    0.000104523644
191    4.64321838e-05
192    -0.000163337864
193    7.99752142e-16
194    0.000790833833
195    -2.41030388e-05
196    -0.000694836773
197    1.46472231e-14
198    0.000836116745
199    0.000476936405
200    -0.000373986989
201    2.95780963e-14
202    -2.17191444e-05
203    1.22496767e-16
204    6.65339364e-06
205    5.445887e-16
206    -1.45662328e-05
207    -0.001096865
208    -0.00835148673
209    -0.0409201438
210    -0.138896497
211    -0.335840899
212    -0.144546112
213    -0.467065634
214    -0.000422787222
215    -0.000279073356
216    -2.08422791e-15
217    -0.00482812996
218    0.000293894034
219    0.000135276879
220    -1.20354344e-15
221    0.00128475575
222    -6.8313532e-06
223    3.79149126e-05
224    -7.12481303e-15
225    -0.0025634055
226    -0.000747655054
227    -0.000398925152
228    1.62840443e-14
229    -0.00183185834
230    -0.000513183948
231    -4.64036934e-05
232    2.84326408e-14
233    -8.07903599e-05
234    -1.26912597e-16
235    -0.00032623889
236    9.90757232e-17
237    -4.53812523e-05
238    9.44188717e-10
239    -2.54595784e-08
240    1.07048455e-07
241    -5.40133959e-07
242    7.27352088e-06
243    3.96069844e-05
244    -2.13304195e-05
245    -1.26929219e-05
246    -4.71823394e-06
247    9.62621392e-16
248    -0.000104353609
249    9.03691657e-05
250    4.12824794e-05
251    -1.66780848e-15
252    0.000310768356
253    -0.00020396007
254    0.000151387463
255    5.09612819e-15
256    -0.000552704996
257    0.000107731799
258    -0.000220475661
259    3.90343434e-15
260    -0.00029945837
261    -0.000460032433
262    -0.000753082218
263    1.2423913e-13
264    -2.297272e-05
265    9.946441e-16
266    4.30281056e-06
267    6.49921541e-16
268    -5.02646334e-05
269    -8.27147435e-06
270    2.68606513e-05
271    8.24195147e-05
272    -7.1776686e-05
273    7.34725783e-06
274    3.31228006e-06
275    1.19912837e-16
[5D]