[Molden Format]
[Atoms] (Angs)
  C      1    6     -0.00714236     -1.70213747     -0.00000000
  H      2    1     -2.06882847     -1.44022412      0.00000000
  H      3    1     -0.12337987     -2.77567521      0.00000000
  H      4    1      0.04651892      1.98813947     -0.00000000
  C      5    6     -1.21953563      0.40211669      0.00000000
  O      6    8     -2.25921553      1.03043814      0.00000000
  C      7    6      1.28797806      0.34644937     -0.00000000
  O      8    8      2.31273661      1.00537216     -0.00000000
  N      9    7      0.03446295      0.97739857     -0.00000000
  N     10    7     -1.17287765     -0.98229824      0.00000000
  C     11    6      1.20107039     -1.10433419     -0.00000000
  H     12    1      2.11220096     -1.67699125     -0.00000000
[GTO]
1    0
S    1    1.000000
   4.56324000E+03    1.96665000E-03 
S    1    1.000000
   6.82024000E+02    1.52306000E-02 
S    1    1.000000
   1.54973000E+02    7.61269000E-02 
S    1    1.000000
   4.44553000E+01    2.60801000E-01 
S    1    1.000000
   1.30290000E+01    6.16462000E-01 
S    1    1.000000
   1.82773000E+00    2.21006000E-01 
SP   3    1.000000
   2.09642000E+01    1.14660000E-01   4.02487000E-02 
   4.80331000E+00    9.19999000E-01   2.37594000E-01 
   1.45933000E+00   -3.03068000E-03   8.15854000E-01 
SP   1    1.000000
   4.83456000E-01    1.00000000E+00   1.00000000E+00 
SP   1    1.000000
   1.45585000E-01    1.00000000E+00   1.00000000E+00 
SP   1    1.000000
   4.38000000E-02    1.00000000E+00   1.00000000E+00 
SP   1    1.000000
   1.31927711E-02    1.00000000E+00   1.00000000E+00 
D    1    1.000000
   6.26000000E-01    1.00000000E+00 

2    0
S    3    1.000000
   3.38650000E+01    2.54938000E-02 
   5.09479000E+00    1.90373000E-01 
   1.15879000E+00    8.52161000E-01 
S    1    1.000000
   3.25840000E-01    1.00000000E+00 
S    1    1.000000
   1.02741000E-01    1.00000000E+00 
S    1    1.000000
   3.60000000E-02    1.00000000E+00 
P    1    1.000000
   7.50000000E-01    1.00000000E+00 

3    0
S    3    1.000000
   3.38650000E+01    2.54938000E-02 
   5.09479000E+00    1.90373000E-01 
   1.15879000E+00    8.52161000E-01 
S    1    1.000000
   3.25840000E-01    1.00000000E+00 
S    1    1.000000
   1.02741000E-01    1.00000000E+00 
S    1    1.000000
   3.60000000E-02    1.00000000E+00 
P    1    1.000000
   7.50000000E-01    1.00000000E+00 

4    0
S    3    1.000000
   3.38650000E+01    2.54938000E-02 
   5.09479000E+00    1.90373000E-01 
   1.15879000E+00    8.52161000E-01 
S    1    1.000000
   3.25840000E-01    1.00000000E+00 
S    1    1.000000
   1.02741000E-01    1.00000000E+00 
S    1    1.000000
   3.60000000E-02    1.00000000E+00 
P    1    1.000000
   7.50000000E-01    1.00000000E+00 

5    0
S    1    1.000000
   4.56324000E+03    1.96665000E-03 
S    1    1.000000
   6.82024000E+02    1.52306000E-02 
S    1    1.000000
   1.54973000E+02    7.61269000E-02 
S    1    1.000000
   4.44553000E+01    2.60801000E-01 
S    1    1.000000
   1.30290000E+01    6.16462000E-01 
S    1    1.000000
   1.82773000E+00    2.21006000E-01 
SP   3    1.000000
   2.09642000E+01    1.14660000E-01   4.02487000E-02 
   4.80331000E+00    9.19999000E-01   2.37594000E-01 
   1.45933000E+00   -3.03068000E-03   8.15854000E-01 
SP   1    1.000000
   4.83456000E-01    1.00000000E+00   1.00000000E+00 
SP   1    1.000000
   1.45585000E-01    1.00000000E+00   1.00000000E+00 
SP   1    1.000000
   4.38000000E-02    1.00000000E+00   1.00000000E+00 
SP   1    1.000000
   1.31927711E-02    1.00000000E+00   1.00000000E+00 
D    1    1.000000
   6.26000000E-01    1.00000000E+00 

6    0
S    1    1.000000
   8.58850000E+03    1.89515000E-03 
S    1    1.000000
   1.29723000E+03    1.43859000E-02 
S    1    1.000000
   2.99296000E+02    7.07320000E-02 
S    1    1.000000
   8.73771000E+01    2.40001000E-01 
S    1    1.000000
   2.56789000E+01    5.94797000E-01 
S    1    1.000000
   3.74004000E+00    2.80802000E-01 
SP   3    1.000000
   4.21175000E+01    1.13889000E-01   3.65114000E-02 
   9.62837000E+00    9.20811000E-01   2.37153000E-01 
   2.85332000E+00   -3.27447000E-03   8.19702000E-01 
SP   1    1.000000
   9.05661000E-01    1.00000000E+00   1.00000000E+00 
SP   1    1.000000
   2.55611000E-01    1.00000000E+00   1.00000000E+00 
SP   1    1.000000
   8.45000000E-02    1.00000000E+00   1.00000000E+00 
SP   1    1.000000
   2.54518072E-02    1.00000000E+00   1.00000000E+00 
D    1    1.000000
   1.29200000E+00    1.00000000E+00 

7    0
S    1    1.000000
   4.56324000E+03    1.96665000E-03 
S    1    1.000000
   6.82024000E+02    1.52306000E-02 
S    1    1.000000
   1.54973000E+02    7.61269000E-02 
S    1    1.000000
   4.44553000E+01    2.60801000E-01 
S    1    1.000000
   1.30290000E+01    6.16462000E-01 
S    1    1.000000
   1.82773000E+00    2.21006000E-01 
SP   3    1.000000
   2.09642000E+01    1.14660000E-01   4.02487000E-02 
   4.80331000E+00    9.19999000E-01   2.37594000E-01 
   1.45933000E+00   -3.03068000E-03   8.15854000E-01 
SP   1    1.000000
   4.83456000E-01    1.00000000E+00   1.00000000E+00 
SP   1    1.000000
   1.45585000E-01    1.00000000E+00   1.00000000E+00 
SP   1    1.000000
   4.38000000E-02    1.00000000E+00   1.00000000E+00 
SP   1    1.000000
   1.31927711E-02    1.00000000E+00   1.00000000E+00 
D    1    1.000000
   6.26000000E-01    1.00000000E+00 

8    0
S    1    1.000000
   8.58850000E+03    1.89515000E-03 
S    1    1.000000
   1.29723000E+03    1.43859000E-02 
S    1    1.000000
   2.99296000E+02    7.07320000E-02 
S    1    1.000000
   8.73771000E+01    2.40001000E-01 
S    1    1.000000
   2.56789000E+01    5.94797000E-01 
S    1    1.000000
   3.74004000E+00    2.80802000E-01 
SP   3    1.000000
   4.21175000E+01    1.13889000E-01   3.65114000E-02 
   9.62837000E+00    9.20811000E-01   2.37153000E-01 
   2.85332000E+00   -3.27447000E-03   8.19702000E-01 
SP   1    1.000000
   9.05661000E-01    1.00000000E+00   1.00000000E+00 
SP   1    1.000000
   2.55611000E-01    1.00000000E+00   1.00000000E+00 
SP   1    1.000000
   8.45000000E-02    1.00000000E+00   1.00000000E+00 
SP   1    1.000000
   2.54518072E-02    1.00000000E+00   1.00000000E+00 
D    1    1.000000
   1.29200000E+00    1.00000000E+00 

9    0
S    1    1.000000
   6.29348000E+03    1.96979000E-03 
S    1    1.000000
   9.49044000E+02    1.49613000E-02 
S    1    1.000000
   2.18776000E+02    7.35006000E-02 
S    1    1.000000
   6.36916000E+01    2.48937000E-01 
S    1    1.000000
   1.88282000E+01    6.02460000E-01 
S    1    1.000000
   2.72023000E+00    2.56202000E-01 
SP   3    1.000000
   3.06331000E+01    1.11906000E-01   3.83119000E-02 
   7.02614000E+00    9.21666000E-01   2.37403000E-01 
   2.11205000E+00   -2.56919000E-03   8.17592000E-01 
SP   1    1.000000
   6.84009000E-01    1.00000000E+00   1.00000000E+00 
SP   1    1.000000
   2.00878000E-01    1.00000000E+00   1.00000000E+00 
SP   1    1.000000
   6.39000000E-02    1.00000000E+00   1.00000000E+00 
SP   1    1.000000
   1.92469880E-02    1.00000000E+00   1.00000000E+00 
D    1    1.000000
   9.13000000E-01    1.00000000E+00 

10    0
S    1    1.000000
   6.29348000E+03    1.96979000E-03 
S    1    1.000000
   9.49044000E+02    1.49613000E-02 
S    1    1.000000
   2.18776000E+02    7.35006000E-02 
S    1    1.000000
   6.36916000E+01    2.48937000E-01 
S    1    1.000000
   1.88282000E+01    6.02460000E-01 
S    1    1.000000
   2.72023000E+00    2.56202000E-01 
SP   3    1.000000
   3.06331000E+01    1.11906000E-01   3.83119000E-02 
   7.02614000E+00    9.21666000E-01   2.37403000E-01 
   2.11205000E+00   -2.56919000E-03   8.17592000E-01 
SP   1    1.000000
   6.84009000E-01    1.00000000E+00   1.00000000E+00 
SP   1    1.000000
   2.00878000E-01    1.00000000E+00   1.00000000E+00 
SP   1    1.000000
   6.39000000E-02    1.00000000E+00   1.00000000E+00 
SP   1    1.000000
   1.92469880E-02    1.00000000E+00   1.00000000E+00 
D    1    1.000000
   9.13000000E-01    1.00000000E+00 

11    0
S    1    1.000000
   4.56324000E+03    1.96665000E-03 
S    1    1.000000
   6.82024000E+02    1.52306000E-02 
S    1    1.000000
   1.54973000E+02    7.61269000E-02 
S    1    1.000000
   4.44553000E+01    2.60801000E-01 
S    1    1.000000
   1.30290000E+01    6.16462000E-01 
S    1    1.000000
   1.82773000E+00    2.21006000E-01 
SP   3    1.000000
   2.09642000E+01    1.14660000E-01   4.02487000E-02 
   4.80331000E+00    9.19999000E-01   2.37594000E-01 
   1.45933000E+00   -3.03068000E-03   8.15854000E-01 
SP   1    1.000000
   4.83456000E-01    1.00000000E+00   1.00000000E+00 
SP   1    1.000000
   1.45585000E-01    1.00000000E+00   1.00000000E+00 
SP   1    1.000000
   4.38000000E-02    1.00000000E+00   1.00000000E+00 
SP   1    1.000000
   1.31927711E-02    1.00000000E+00   1.00000000E+00 
D    1    1.000000
   6.26000000E-01    1.00000000E+00 

12    0
S    3    1.000000
   3.38650000E+01    2.54938000E-02 
   5.09479000E+00    1.90373000E-01 
   1.15879000E+00    8.52161000E-01 
S    1    1.000000
   3.25840000E-01    1.00000000E+00 
S    1    1.000000
   1.02741000E-01    1.00000000E+00 
S    1    1.000000
   3.60000000E-02    1.00000000E+00 
P    1    1.000000
   7.50000000E-01    1.00000000E+00 

[MO]
Sym=X
Ene=0.005048
Spin=Alpha
Occup=1
1    -1.32217574e-08
2    1.00466523e-07
3    -3.1174105e-07
4    4.87906035e-06
5    2.19478872e-05
6    -1.2507242e-05
7    8.25623303e-07
8    8.14416447e-06
9    1.66332046e-15
10    -3.92815114e-05
11    -1.26145061e-05
12    -3.76057549e-05
13    1.27336501e-15
14    -0.000153047543
15    -3.82042433e-05
16    -5.07588754e-05
17    1.84111342e-15
18    -0.000885694667
19    5.25977024e-05
20    -0.000733716162
21    -1.47882132e-14
22    -6.00577671e-05
23    0.000382993416
24    -0.000275596371
25    -5.71383325e-14
26    -1.43465033e-06
27    -1.54951073e-16
28    5.39177174e-06
29    5.90587326e-16
30    -2.82326385e-06
31    -6.96622168e-06
32    2.89071305e-05
33    0.0001733205
34    0.000256182896
35    2.99247897e-06
36    -9.46211072e-07
37    1.96985754e-17
38    -3.20351874e-06
39    -3.21966627e-06
40    -3.61779058e-05
41    -0.000628357748
42    1.00131996e-06
43    -2.29830325e-06
44    7.76327163e-16
45    -0.00023930668
46    -5.90684307e-05
47    -0.000320887483
48    -0.00028921701
49    3.41011513e-06
50    9.79513835e-05
51    -1.4850335e-15
52    -2.22071612e-08
53    -1.81098859e-07
54    -7.72198224e-07
55    -2.78854913e-06
56    -1.02657255e-06
57    5.05569736e-05
58    4.63704582e-07
59    -4.80840937e-05
60    -2.26045569e-05
61    -1.05579234e-15
62    -0.000282627627
63    -0.000293856895
64    -0.000120160187
65    6.80346591e-16
66    0.000237483578
67    0.000107408738
68    0.000153472268
69    -5.14344356e-15
70    0.000960308625
71    0.000522000874
72    -0.000226137026
73    -3.26146659e-14
74    0.000991981485
75    4.86183965e-05
76    -0.000362905396
77    7.56514609e-15
78    -0.000131709052
79    -3.27877297e-16
80    1.15233401e-05
81    -5.21751629e-16
82    -0.00014475285
83    -1.3256567e-08
84    -1.18604295e-07
85    -4.56311597e-07
86    -2.03289603e-06
87    -4.81854535e-07
88    1.33977991e-05
89    -1.75497864e-05
90    1.70630902e-05
91    3.80997583e-06
92    -5.44582324e-16
93    -1.95248551e-05
94    -3.75720111e-05
95    8.69713909e-06
96    2.30871592e-16
97    -7.02044333e-05
98    -8.86224261e-06
99    -1.502045e-05
100    -3.61771892e-15
101    0.000117189522
102    -2.07415365e-05
103    -1.08634311e-06
104    1.02212826e-14
105    0.000608656308
106    4.29356727e-05
107    -6.2938281e-05
108    -9.13501763e-15
109    -6.22682639e-07
110    1.8273052e-16
111    4.4584726e-06
112    -2.81718092e-16
113    -2.36843556e-05
114    -1.99425985e-08
115    -1.71595881e-07
116    -6.73146067e-07
117    -2.756401e-06
118    -7.8585785e-07
119    3.49456872e-05
120    6.35228961e-07
121    4.52501908e-05
122    -2.68827884e-05
123    -1.71989017e-15
124    -0.000237413431
125    0.000240521514
126    -0.000121212141
127    -3.96890583e-15
128    0.000233991841
129    -7.15882627e-05
130    8.35657737e-05
131    -4.18014512e-15
132    0.0016144167
133    -0.000725466214
134    -0.000363069753
135    -2.49756979e-14
136    -0.00018814641
137    -0.000314013825
138    3.40087292e-05
139    -5.00859839e-14
140    0.000116903705
141    -1.01898395e-15
142    -2.29648813e-06
143    -1.36160273e-16
144    -0.000117702234
145    -1.18293608e-08
146    -1.08217263e-07
147    -4.01963198e-07
148    -1.860803e-06
149    6.23078769e-08
150    1.4020101e-05
151    -1.71609088e-05
152    -1.71044242e-05
153    3.3109468e-06
154    -1.90902139e-15
155    -1.99880691e-05
156    3.72109876e-05
157    1.24776285e-05
158    -3.49314864e-15
159    -5.78967715e-05
160    -7.04150314e-06
161    -3.88382178e-06
162    -3.67048693e-15
163    0.00011534931
164    4.05522078e-05
165    3.82952255e-06
166    -1.81203258e-15
167    0.00066294647
168    -5.81967097e-05
169    -2.18137932e-05
170    2.85908733e-15
171    -2.53078596e-06
172    1.60370044e-16
173    5.49675689e-06
174    7.21118184e-16
175    -1.89723745e-05
176    -0.0010972058
177    -0.00835412874
178    -0.0409332109
179    -0.138942344
180    -0.335936165
181    -0.144067153
182    -0.467476084
183    0.000136788242
184    0.000239492442
185    -1.83135263e-15
186    -0.00426581241
187    -8.55615536e-05
188    -9.96743831e-05
189    -1.19964274e-15
190    0.000255959907
191    6.43520828e-05
192    8.30669483e-05
193    -5.27917177e-15
194    -0.00221365994
195    1.58006053e-05
196    0.000889550632
197    1.68749214e-14
198    -0.00188943941
199    -0.0001532334
200    0.000466094006
201    2.71878414e-14
202    1.07524239e-05
203    3.96602191e-17
204    4.87660719e-06
205    1.98046469e-16
206    1.38650372e-05
207    2.44188585e-07
208    1.81128878e-06
209    9.21691797e-06
210    2.99486308e-05
211    8.39946775e-05
212    7.25763592e-05
213    7.62627369e-05
214    4.39939216e-06
215    2.1676684e-05
216    1.07815532e-15
217    -6.40524358e-05
218    -5.46576917e-06
219    -6.95508804e-05
220    -1.3583705e-16
221    7.28395556e-05
222    8.3459835e-05
223    0.000106668534
224    2.72567778e-15
225    0.000454389196
226    0.000332910928
227    0.000195681786
228    1.48624765e-14
229    0.000517964965
230    0.000384125324
231    -0.000196967762
232    3.29340182e-14
233    -7.11717887e-06
234    -1.03172906e-16
235    6.3604582e-06
236    4.07662966e-16
237    2.53238885e-05
238    9.47900488e-10
239    -3.58854618e-08
240    1.31433435e-07
241    -7.79541345e-07
242    8.73754488e-06
243    4.01113177e-05
244    -2.50123871e-05
245    -1.36321681e-06
246    1.90229418e-05
247    1.05293171e-15
248    -7.67299084e-05
249    -2.44285295e-06
250    -8.36438273e-05
251    -3.08369542e-16
252    0.000224028021
253    -0.000144569584
254    0.00010770835
255    3.64350118e-15
256    -0.000332005876
257    -5.5255718e-05
258    6.73827932e-05
259    1.0954885e-14
260    -0.000393653535
261    0.000267984496
262    0.000488097862
263    6.88326156e-14
264    7.62587076e-06
265    -3.16549597e-16
266    1.28334588e-06
267    -5.15492421e-16
268    3.99746453e-05
269    -7.34746377e-06
270    7.09747392e-06
271    0.000102094341
272    0.000101156716
273    2.94820775e-06
274    -6.45164578e-06
275    2.60548342e-16
[5D]