[Molden Format]
[Atoms] (Angs)
  C      1    6     -0.00714236     -1.70213747     -0.00000000
  H      2    1     -2.06882847     -1.44022412      0.00000000
  H      3    1     -0.12337987     -2.77567521      0.00000000
  H      4    1      0.04651892      1.98813947     -0.00000000
  C      5    6     -1.21953563      0.40211669      0.00000000
  O      6    8     -2.25921553      1.03043814      0.00000000
  C      7    6      1.28797806      0.34644937     -0.00000000
  O      8    8      2.31273661      1.00537216     -0.00000000
  N      9    7      0.03446295      0.97739857     -0.00000000
  N     10    7     -1.17287765     -0.98229824      0.00000000
  C     11    6      1.20107039     -1.10433419     -0.00000000
  H     12    1      2.11220096     -1.67699125     -0.00000000
[GTO]
1    0
S    1    1.000000
   4.56324000E+03    1.96665000E-03 
S    1    1.000000
   6.82024000E+02    1.52306000E-02 
S    1    1.000000
   1.54973000E+02    7.61269000E-02 
S    1    1.000000
   4.44553000E+01    2.60801000E-01 
S    1    1.000000
   1.30290000E+01    6.16462000E-01 
S    1    1.000000
   1.82773000E+00    2.21006000E-01 
SP   3    1.000000
   2.09642000E+01    1.14660000E-01   4.02487000E-02 
   4.80331000E+00    9.19999000E-01   2.37594000E-01 
   1.45933000E+00   -3.03068000E-03   8.15854000E-01 
SP   1    1.000000
   4.83456000E-01    1.00000000E+00   1.00000000E+00 
SP   1    1.000000
   1.45585000E-01    1.00000000E+00   1.00000000E+00 
SP   1    1.000000
   4.38000000E-02    1.00000000E+00   1.00000000E+00 
SP   1    1.000000
   1.31927711E-02    1.00000000E+00   1.00000000E+00 
D    1    1.000000
   6.26000000E-01    1.00000000E+00 

2    0
S    3    1.000000
   3.38650000E+01    2.54938000E-02 
   5.09479000E+00    1.90373000E-01 
   1.15879000E+00    8.52161000E-01 
S    1    1.000000
   3.25840000E-01    1.00000000E+00 
S    1    1.000000
   1.02741000E-01    1.00000000E+00 
S    1    1.000000
   3.60000000E-02    1.00000000E+00 
P    1    1.000000
   7.50000000E-01    1.00000000E+00 

3    0
S    3    1.000000
   3.38650000E+01    2.54938000E-02 
   5.09479000E+00    1.90373000E-01 
   1.15879000E+00    8.52161000E-01 
S    1    1.000000
   3.25840000E-01    1.00000000E+00 
S    1    1.000000
   1.02741000E-01    1.00000000E+00 
S    1    1.000000
   3.60000000E-02    1.00000000E+00 
P    1    1.000000
   7.50000000E-01    1.00000000E+00 

4    0
S    3    1.000000
   3.38650000E+01    2.54938000E-02 
   5.09479000E+00    1.90373000E-01 
   1.15879000E+00    8.52161000E-01 
S    1    1.000000
   3.25840000E-01    1.00000000E+00 
S    1    1.000000
   1.02741000E-01    1.00000000E+00 
S    1    1.000000
   3.60000000E-02    1.00000000E+00 
P    1    1.000000
   7.50000000E-01    1.00000000E+00 

5    0
S    1    1.000000
   4.56324000E+03    1.96665000E-03 
S    1    1.000000
   6.82024000E+02    1.52306000E-02 
S    1    1.000000
   1.54973000E+02    7.61269000E-02 
S    1    1.000000
   4.44553000E+01    2.60801000E-01 
S    1    1.000000
   1.30290000E+01    6.16462000E-01 
S    1    1.000000
   1.82773000E+00    2.21006000E-01 
SP   3    1.000000
   2.09642000E+01    1.14660000E-01   4.02487000E-02 
   4.80331000E+00    9.19999000E-01   2.37594000E-01 
   1.45933000E+00   -3.03068000E-03   8.15854000E-01 
SP   1    1.000000
   4.83456000E-01    1.00000000E+00   1.00000000E+00 
SP   1    1.000000
   1.45585000E-01    1.00000000E+00   1.00000000E+00 
SP   1    1.000000
   4.38000000E-02    1.00000000E+00   1.00000000E+00 
SP   1    1.000000
   1.31927711E-02    1.00000000E+00   1.00000000E+00 
D    1    1.000000
   6.26000000E-01    1.00000000E+00 

6    0
S    1    1.000000
   8.58850000E+03    1.89515000E-03 
S    1    1.000000
   1.29723000E+03    1.43859000E-02 
S    1    1.000000
   2.99296000E+02    7.07320000E-02 
S    1    1.000000
   8.73771000E+01    2.40001000E-01 
S    1    1.000000
   2.56789000E+01    5.94797000E-01 
S    1    1.000000
   3.74004000E+00    2.80802000E-01 
SP   3    1.000000
   4.21175000E+01    1.13889000E-01   3.65114000E-02 
   9.62837000E+00    9.20811000E-01   2.37153000E-01 
   2.85332000E+00   -3.27447000E-03   8.19702000E-01 
SP   1    1.000000
   9.05661000E-01    1.00000000E+00   1.00000000E+00 
SP   1    1.000000
   2.55611000E-01    1.00000000E+00   1.00000000E+00 
SP   1    1.000000
   8.45000000E-02    1.00000000E+00   1.00000000E+00 
SP   1    1.000000
   2.54518072E-02    1.00000000E+00   1.00000000E+00 
D    1    1.000000
   1.29200000E+00    1.00000000E+00 

7    0
S    1    1.000000
   4.56324000E+03    1.96665000E-03 
S    1    1.000000
   6.82024000E+02    1.52306000E-02 
S    1    1.000000
   1.54973000E+02    7.61269000E-02 
S    1    1.000000
   4.44553000E+01    2.60801000E-01 
S    1    1.000000
   1.30290000E+01    6.16462000E-01 
S    1    1.000000
   1.82773000E+00    2.21006000E-01 
SP   3    1.000000
   2.09642000E+01    1.14660000E-01   4.02487000E-02 
   4.80331000E+00    9.19999000E-01   2.37594000E-01 
   1.45933000E+00   -3.03068000E-03   8.15854000E-01 
SP   1    1.000000
   4.83456000E-01    1.00000000E+00   1.00000000E+00 
SP   1    1.000000
   1.45585000E-01    1.00000000E+00   1.00000000E+00 
SP   1    1.000000
   4.38000000E-02    1.00000000E+00   1.00000000E+00 
SP   1    1.000000
   1.31927711E-02    1.00000000E+00   1.00000000E+00 
D    1    1.000000
   6.26000000E-01    1.00000000E+00 

8    0
S    1    1.000000
   8.58850000E+03    1.89515000E-03 
S    1    1.000000
   1.29723000E+03    1.43859000E-02 
S    1    1.000000
   2.99296000E+02    7.07320000E-02 
S    1    1.000000
   8.73771000E+01    2.40001000E-01 
S    1    1.000000
   2.56789000E+01    5.94797000E-01 
S    1    1.000000
   3.74004000E+00    2.80802000E-01 
SP   3    1.000000
   4.21175000E+01    1.13889000E-01   3.65114000E-02 
   9.62837000E+00    9.20811000E-01   2.37153000E-01 
   2.85332000E+00   -3.27447000E-03   8.19702000E-01 
SP   1    1.000000
   9.05661000E-01    1.00000000E+00   1.00000000E+00 
SP   1    1.000000
   2.55611000E-01    1.00000000E+00   1.00000000E+00 
SP   1    1.000000
   8.45000000E-02    1.00000000E+00   1.00000000E+00 
SP   1    1.000000
   2.54518072E-02    1.00000000E+00   1.00000000E+00 
D    1    1.000000
   1.29200000E+00    1.00000000E+00 

9    0
S    1    1.000000
   6.29348000E+03    1.96979000E-03 
S    1    1.000000
   9.49044000E+02    1.49613000E-02 
S    1    1.000000
   2.18776000E+02    7.35006000E-02 
S    1    1.000000
   6.36916000E+01    2.48937000E-01 
S    1    1.000000
   1.88282000E+01    6.02460000E-01 
S    1    1.000000
   2.72023000E+00    2.56202000E-01 
SP   3    1.000000
   3.06331000E+01    1.11906000E-01   3.83119000E-02 
   7.02614000E+00    9.21666000E-01   2.37403000E-01 
   2.11205000E+00   -2.56919000E-03   8.17592000E-01 
SP   1    1.000000
   6.84009000E-01    1.00000000E+00   1.00000000E+00 
SP   1    1.000000
   2.00878000E-01    1.00000000E+00   1.00000000E+00 
SP   1    1.000000
   6.39000000E-02    1.00000000E+00   1.00000000E+00 
SP   1    1.000000
   1.92469880E-02    1.00000000E+00   1.00000000E+00 
D    1    1.000000
   9.13000000E-01    1.00000000E+00 

10    0
S    1    1.000000
   6.29348000E+03    1.96979000E-03 
S    1    1.000000
   9.49044000E+02    1.49613000E-02 
S    1    1.000000
   2.18776000E+02    7.35006000E-02 
S    1    1.000000
   6.36916000E+01    2.48937000E-01 
S    1    1.000000
   1.88282000E+01    6.02460000E-01 
S    1    1.000000
   2.72023000E+00    2.56202000E-01 
SP   3    1.000000
   3.06331000E+01    1.11906000E-01   3.83119000E-02 
   7.02614000E+00    9.21666000E-01   2.37403000E-01 
   2.11205000E+00   -2.56919000E-03   8.17592000E-01 
SP   1    1.000000
   6.84009000E-01    1.00000000E+00   1.00000000E+00 
SP   1    1.000000
   2.00878000E-01    1.00000000E+00   1.00000000E+00 
SP   1    1.000000
   6.39000000E-02    1.00000000E+00   1.00000000E+00 
SP   1    1.000000
   1.92469880E-02    1.00000000E+00   1.00000000E+00 
D    1    1.000000
   9.13000000E-01    1.00000000E+00 

11    0
S    1    1.000000
   4.56324000E+03    1.96665000E-03 
S    1    1.000000
   6.82024000E+02    1.52306000E-02 
S    1    1.000000
   1.54973000E+02    7.61269000E-02 
S    1    1.000000
   4.44553000E+01    2.60801000E-01 
S    1    1.000000
   1.30290000E+01    6.16462000E-01 
S    1    1.000000
   1.82773000E+00    2.21006000E-01 
SP   3    1.000000
   2.09642000E+01    1.14660000E-01   4.02487000E-02 
   4.80331000E+00    9.19999000E-01   2.37594000E-01 
   1.45933000E+00   -3.03068000E-03   8.15854000E-01 
SP   1    1.000000
   4.83456000E-01    1.00000000E+00   1.00000000E+00 
SP   1    1.000000
   1.45585000E-01    1.00000000E+00   1.00000000E+00 
SP   1    1.000000
   4.38000000E-02    1.00000000E+00   1.00000000E+00 
SP   1    1.000000
   1.31927711E-02    1.00000000E+00   1.00000000E+00 
D    1    1.000000
   6.26000000E-01    1.00000000E+00 

12    0
S    3    1.000000
   3.38650000E+01    2.54938000E-02 
   5.09479000E+00    1.90373000E-01 
   1.15879000E+00    8.52161000E-01 
S    1    1.000000
   3.25840000E-01    1.00000000E+00 
S    1    1.000000
   1.02741000E-01    1.00000000E+00 
S    1    1.000000
   3.60000000E-02    1.00000000E+00 
P    1    1.000000
   7.50000000E-01    1.00000000E+00 

[MO]
Sym=X
Ene=0.020324
Spin=Alpha
Occup=1
1    1.32588839e-08
2    -1.00343778e-07
3    3.1233959e-07
4    -4.88020753e-06
5    -2.19637437e-05
6    1.25118158e-05
7    -8.29938968e-07
8    -8.14131386e-06
9    -1.66326188e-15
10    3.93296478e-05
11    1.25479511e-05
12    3.76473809e-05
13    -1.27305275e-15
14    0.000153066291
15    3.82089822e-05
16    5.07847838e-05
17    -1.84097646e-15
18    0.000885378352
19    -5.25818574e-05
20    0.000733509074
21    1.47904849e-14
22    6.00724368e-05
23    -0.000382951373
24    0.000275528584
25    5.71542441e-14
26    1.39682408e-06
27    1.5495731e-16
28    -5.40064109e-06
29    -5.90707367e-16
30    2.83644486e-06
31    7.00051257e-06
32    -2.88785695e-05
33    -0.00017328698
34    -0.000256148965
35    -2.97581157e-06
36    9.54404588e-07
37    -1.94745948e-17
38    3.2049827e-06
39    3.23958881e-06
40    3.61586956e-05
41    0.000628201003
42    -1.00283114e-06
43    2.30703398e-06
44    -7.76261037e-16
45    0.000239307457
46    5.90654559e-05
47    0.000320845275
48    0.000289138791
49    -3.40994454e-06
50    -9.79514981e-05
51    1.48493095e-15
52    2.22098309e-08
53    1.81129453e-07
54    7.72269074e-07
55    2.78905076e-06
56    1.02469285e-06
57    -5.05741115e-05
58    -4.58815882e-07
59    4.80836446e-05
60    2.25997828e-05
61    1.05603297e-15
62    0.000282680924
63    0.000293859653
64    0.000120089034
65    -6.80409245e-16
66    -0.000237469039
67    -0.000107379276
68    -0.000153498426
69    5.14440408e-15
70    -0.000960395796
71    -0.000522008354
72    0.000226163579
73    3.26190003e-14
74    -0.000992084927
75    -4.86662699e-05
76    0.000362874004
77    -7.57159261e-15
78    0.000131701321
79    3.27757246e-16
80    -1.15333061e-05
81    5.21700535e-16
82    0.000144715084
83    1.5385612e-08
84    1.34802008e-07
85    5.35720639e-07
86    2.30319463e-06
87    1.15036015e-06
88    -1.30817802e-05
89    1.8512152e-05
90    -1.7060064e-05
91    -3.80944122e-06
92    5.44714482e-16
93    1.95369219e-05
94    3.75732313e-05
95    -8.70035372e-06
96    -2.31000113e-16
97    7.02214891e-05
98    8.86935547e-06
99    1.50194147e-05
100    3.6187387e-15
101    -0.000117172849
102    2.07432703e-05
103    1.08594086e-06
104    -1.02233007e-14
105    -0.000608687885
106    -4.29394699e-05
107    6.29297197e-05
108    9.13909596e-15
109    6.19753696e-07
110    -1.82755737e-16
111    -4.45888326e-06
112    2.81726494e-16
113    2.36824678e-05
114    1.99425857e-08
115    1.71597374e-07
116    6.73142323e-07
117    2.7564343e-06
118    7.85569389e-07
119    -3.49469426e-05
120    -6.34275635e-07
121    -4.52494451e-05
122    2.68836767e-05
123    1.71966918e-15
124    0.000237412928
125    -0.000240526686
126    0.000121206602
127    3.96849951e-15
128    -0.000233911985
129    7.15810381e-05
130    -8.35660108e-05
131    4.1798146e-15
132    -0.00161420368
133    0.000725386807
134    0.000363025085
135    2.49776048e-14
136    0.000188128545
137    0.000313931522
138    -3.39887177e-05
139    5.01004453e-14
140    -0.000116904892
141    1.01889691e-15
142    2.29529775e-06
143    1.36069027e-16
144    0.000117700892
145    8.73251795e-09
146    8.46603663e-08
147    2.86449437e-07
148    1.46771042e-06
149    -1.03548427e-06
150    -1.44834857e-05
151    1.57637392e-05
152    1.71092941e-05
153    -3.30793808e-06
154    1.90883421e-15
155    1.99747255e-05
156    -3.72140101e-05
157    -1.24796492e-05
158    3.49286353e-15
159    5.78925079e-05
160    7.04618899e-06
161    3.88660716e-06
162    3.6699646e-15
163    -0.000115380247
164    -4.05383598e-05
165    -3.82229492e-06
166    1.81113153e-15
167    -0.0006629064
168    5.81986362e-05
169    2.18272758e-05
170    -2.85986566e-15
171    2.53124202e-06
172    -1.60340615e-16
173    -5.49699056e-06
174    -7.21034283e-16
175    1.89725524e-05
176    0.00109720582
177    0.00835412894
178    0.0409332119
179    0.138942347
180    0.335936171
181    0.144067152
182    0.467476098
183    -0.000136785989
184    -0.000239490685
185    1.83125863e-15
186    0.00426582032
187    8.55541526e-05
188    9.96693518e-05
189    1.19947572e-15
190    -0.000255976588
191    -6.43593139e-05
192    -8.30412788e-05
193    5.2790571e-15
194    0.0022135374
195    -1.57965869e-05
196    -0.000889442045
197    -1.68771809e-14
198    0.00188931244
199    0.000153172754
200    -0.000466035942
201    -2.71923904e-14
202    -1.07489884e-05
203    -3.96769321e-17
204    -4.877638e-06
205    -1.98130833e-16
206    -1.38627801e-05
207    -7.29085174e-08
208    -5.07169058e-07
209    -2.82706611e-06
210    -8.25935925e-06
211    -3.15517251e-05
212    -5.00049295e-05
213    -3.32844386e-06
214    -4.3333529e-06
215    -2.16331372e-05
216    -1.07783938e-15
217    6.48064575e-05
218    5.41981551e-06
219    6.95298682e-05
220    1.36018412e-16
221    -7.30405797e-05
222    -8.34590155e-05
223    -0.000106674585
224    -2.72461227e-15
225    -0.000453990663
226    -0.00033279505
227    -0.000195619693
228    -1.4864939e-14
229    -0.000517682746
230    -0.000384045224
231    0.000196973826
232    -3.29385778e-14
233    7.1297648e-06
234    1.03193086e-16
235    -6.30952345e-06
236    -4.07679957e-16
237    -2.53168487e-05
238    -9.480535e-10
239    3.58894048e-08
240    -1.314504e-07
241    7.79625198e-07
242    -8.73868289e-06
243    -4.01174962e-05
244    2.50157118e-05
245    1.36522262e-06
246    -1.90221704e-05
247    -1.05308926e-15
248    7.67462194e-05
249    2.42866203e-06
250    8.36371973e-05
251    3.08615738e-16
252    -0.000224076797
253    0.000144601725
254    -0.000107731896
255    -3.64431752e-15
256    0.000332107279
257    5.52326817e-05
258    -6.73475915e-05
259    -1.09553643e-14
260    0.000393698286
261    -0.000267913787
262    -0.000487981342
263    -6.88527455e-14
264    -7.62238875e-06
265    3.16397938e-16
266    -1.28401839e-06
267    5.15396249e-16
268    -3.99666816e-05
269    7.34873923e-06
270    -7.1018112e-06
271    -0.000102107016
272    -0.000101142594
273    -2.94931358e-06
274    6.4511184e-06
275    -2.60572165e-16
[5D]