[Molden Format]
[Atoms] (Angs)
  C      1    6     -0.00714236     -1.70213747     -0.00000000
  H      2    1     -2.06882847     -1.44022412      0.00000000
  H      3    1     -0.12337987     -2.77567521      0.00000000
  H      4    1      0.04651892      1.98813947     -0.00000000
  C      5    6     -1.21953563      0.40211669      0.00000000
  O      6    8     -2.25921553      1.03043814      0.00000000
  C      7    6      1.28797806      0.34644937     -0.00000000
  O      8    8      2.31273661      1.00537216     -0.00000000
  N      9    7      0.03446295      0.97739857     -0.00000000
  N     10    7     -1.17287765     -0.98229824      0.00000000
  C     11    6      1.20107039     -1.10433419     -0.00000000
  H     12    1      2.11220096     -1.67699125     -0.00000000
[GTO]
1    0
S    1    1.000000
   4.56324000E+03    1.96665000E-03 
S    1    1.000000
   6.82024000E+02    1.52306000E-02 
S    1    1.000000
   1.54973000E+02    7.61269000E-02 
S    1    1.000000
   4.44553000E+01    2.60801000E-01 
S    1    1.000000
   1.30290000E+01    6.16462000E-01 
S    1    1.000000
   1.82773000E+00    2.21006000E-01 
SP   3    1.000000
   2.09642000E+01    1.14660000E-01   4.02487000E-02 
   4.80331000E+00    9.19999000E-01   2.37594000E-01 
   1.45933000E+00   -3.03068000E-03   8.15854000E-01 
SP   1    1.000000
   4.83456000E-01    1.00000000E+00   1.00000000E+00 
SP   1    1.000000
   1.45585000E-01    1.00000000E+00   1.00000000E+00 
SP   1    1.000000
   4.38000000E-02    1.00000000E+00   1.00000000E+00 
SP   1    1.000000
   1.31927711E-02    1.00000000E+00   1.00000000E+00 
D    1    1.000000
   6.26000000E-01    1.00000000E+00 

2    0
S    3    1.000000
   3.38650000E+01    2.54938000E-02 
   5.09479000E+00    1.90373000E-01 
   1.15879000E+00    8.52161000E-01 
S    1    1.000000
   3.25840000E-01    1.00000000E+00 
S    1    1.000000
   1.02741000E-01    1.00000000E+00 
S    1    1.000000
   3.60000000E-02    1.00000000E+00 
P    1    1.000000
   7.50000000E-01    1.00000000E+00 

3    0
S    3    1.000000
   3.38650000E+01    2.54938000E-02 
   5.09479000E+00    1.90373000E-01 
   1.15879000E+00    8.52161000E-01 
S    1    1.000000
   3.25840000E-01    1.00000000E+00 
S    1    1.000000
   1.02741000E-01    1.00000000E+00 
S    1    1.000000
   3.60000000E-02    1.00000000E+00 
P    1    1.000000
   7.50000000E-01    1.00000000E+00 

4    0
S    3    1.000000
   3.38650000E+01    2.54938000E-02 
   5.09479000E+00    1.90373000E-01 
   1.15879000E+00    8.52161000E-01 
S    1    1.000000
   3.25840000E-01    1.00000000E+00 
S    1    1.000000
   1.02741000E-01    1.00000000E+00 
S    1    1.000000
   3.60000000E-02    1.00000000E+00 
P    1    1.000000
   7.50000000E-01    1.00000000E+00 

5    0
S    1    1.000000
   4.56324000E+03    1.96665000E-03 
S    1    1.000000
   6.82024000E+02    1.52306000E-02 
S    1    1.000000
   1.54973000E+02    7.61269000E-02 
S    1    1.000000
   4.44553000E+01    2.60801000E-01 
S    1    1.000000
   1.30290000E+01    6.16462000E-01 
S    1    1.000000
   1.82773000E+00    2.21006000E-01 
SP   3    1.000000
   2.09642000E+01    1.14660000E-01   4.02487000E-02 
   4.80331000E+00    9.19999000E-01   2.37594000E-01 
   1.45933000E+00   -3.03068000E-03   8.15854000E-01 
SP   1    1.000000
   4.83456000E-01    1.00000000E+00   1.00000000E+00 
SP   1    1.000000
   1.45585000E-01    1.00000000E+00   1.00000000E+00 
SP   1    1.000000
   4.38000000E-02    1.00000000E+00   1.00000000E+00 
SP   1    1.000000
   1.31927711E-02    1.00000000E+00   1.00000000E+00 
D    1    1.000000
   6.26000000E-01    1.00000000E+00 

6    0
S    1    1.000000
   8.58850000E+03    1.89515000E-03 
S    1    1.000000
   1.29723000E+03    1.43859000E-02 
S    1    1.000000
   2.99296000E+02    7.07320000E-02 
S    1    1.000000
   8.73771000E+01    2.40001000E-01 
S    1    1.000000
   2.56789000E+01    5.94797000E-01 
S    1    1.000000
   3.74004000E+00    2.80802000E-01 
SP   3    1.000000
   4.21175000E+01    1.13889000E-01   3.65114000E-02 
   9.62837000E+00    9.20811000E-01   2.37153000E-01 
   2.85332000E+00   -3.27447000E-03   8.19702000E-01 
SP   1    1.000000
   9.05661000E-01    1.00000000E+00   1.00000000E+00 
SP   1    1.000000
   2.55611000E-01    1.00000000E+00   1.00000000E+00 
SP   1    1.000000
   8.45000000E-02    1.00000000E+00   1.00000000E+00 
SP   1    1.000000
   2.54518072E-02    1.00000000E+00   1.00000000E+00 
D    1    1.000000
   1.29200000E+00    1.00000000E+00 

7    0
S    1    1.000000
   4.56324000E+03    1.96665000E-03 
S    1    1.000000
   6.82024000E+02    1.52306000E-02 
S    1    1.000000
   1.54973000E+02    7.61269000E-02 
S    1    1.000000
   4.44553000E+01    2.60801000E-01 
S    1    1.000000
   1.30290000E+01    6.16462000E-01 
S    1    1.000000
   1.82773000E+00    2.21006000E-01 
SP   3    1.000000
   2.09642000E+01    1.14660000E-01   4.02487000E-02 
   4.80331000E+00    9.19999000E-01   2.37594000E-01 
   1.45933000E+00   -3.03068000E-03   8.15854000E-01 
SP   1    1.000000
   4.83456000E-01    1.00000000E+00   1.00000000E+00 
SP   1    1.000000
   1.45585000E-01    1.00000000E+00   1.00000000E+00 
SP   1    1.000000
   4.38000000E-02    1.00000000E+00   1.00000000E+00 
SP   1    1.000000
   1.31927711E-02    1.00000000E+00   1.00000000E+00 
D    1    1.000000
   6.26000000E-01    1.00000000E+00 

8    0
S    1    1.000000
   8.58850000E+03    1.89515000E-03 
S    1    1.000000
   1.29723000E+03    1.43859000E-02 
S    1    1.000000
   2.99296000E+02    7.07320000E-02 
S    1    1.000000
   8.73771000E+01    2.40001000E-01 
S    1    1.000000
   2.56789000E+01    5.94797000E-01 
S    1    1.000000
   3.74004000E+00    2.80802000E-01 
SP   3    1.000000
   4.21175000E+01    1.13889000E-01   3.65114000E-02 
   9.62837000E+00    9.20811000E-01   2.37153000E-01 
   2.85332000E+00   -3.27447000E-03   8.19702000E-01 
SP   1    1.000000
   9.05661000E-01    1.00000000E+00   1.00000000E+00 
SP   1    1.000000
   2.55611000E-01    1.00000000E+00   1.00000000E+00 
SP   1    1.000000
   8.45000000E-02    1.00000000E+00   1.00000000E+00 
SP   1    1.000000
   2.54518072E-02    1.00000000E+00   1.00000000E+00 
D    1    1.000000
   1.29200000E+00    1.00000000E+00 

9    0
S    1    1.000000
   6.29348000E+03    1.96979000E-03 
S    1    1.000000
   9.49044000E+02    1.49613000E-02 
S    1    1.000000
   2.18776000E+02    7.35006000E-02 
S    1    1.000000
   6.36916000E+01    2.48937000E-01 
S    1    1.000000
   1.88282000E+01    6.02460000E-01 
S    1    1.000000
   2.72023000E+00    2.56202000E-01 
SP   3    1.000000
   3.06331000E+01    1.11906000E-01   3.83119000E-02 
   7.02614000E+00    9.21666000E-01   2.37403000E-01 
   2.11205000E+00   -2.56919000E-03   8.17592000E-01 
SP   1    1.000000
   6.84009000E-01    1.00000000E+00   1.00000000E+00 
SP   1    1.000000
   2.00878000E-01    1.00000000E+00   1.00000000E+00 
SP   1    1.000000
   6.39000000E-02    1.00000000E+00   1.00000000E+00 
SP   1    1.000000
   1.92469880E-02    1.00000000E+00   1.00000000E+00 
D    1    1.000000
   9.13000000E-01    1.00000000E+00 

10    0
S    1    1.000000
   6.29348000E+03    1.96979000E-03 
S    1    1.000000
   9.49044000E+02    1.49613000E-02 
S    1    1.000000
   2.18776000E+02    7.35006000E-02 
S    1    1.000000
   6.36916000E+01    2.48937000E-01 
S    1    1.000000
   1.88282000E+01    6.02460000E-01 
S    1    1.000000
   2.72023000E+00    2.56202000E-01 
SP   3    1.000000
   3.06331000E+01    1.11906000E-01   3.83119000E-02 
   7.02614000E+00    9.21666000E-01   2.37403000E-01 
   2.11205000E+00   -2.56919000E-03   8.17592000E-01 
SP   1    1.000000
   6.84009000E-01    1.00000000E+00   1.00000000E+00 
SP   1    1.000000
   2.00878000E-01    1.00000000E+00   1.00000000E+00 
SP   1    1.000000
   6.39000000E-02    1.00000000E+00   1.00000000E+00 
SP   1    1.000000
   1.92469880E-02    1.00000000E+00   1.00000000E+00 
D    1    1.000000
   9.13000000E-01    1.00000000E+00 

11    0
S    1    1.000000
   4.56324000E+03    1.96665000E-03 
S    1    1.000000
   6.82024000E+02    1.52306000E-02 
S    1    1.000000
   1.54973000E+02    7.61269000E-02 
S    1    1.000000
   4.44553000E+01    2.60801000E-01 
S    1    1.000000
   1.30290000E+01    6.16462000E-01 
S    1    1.000000
   1.82773000E+00    2.21006000E-01 
SP   3    1.000000
   2.09642000E+01    1.14660000E-01   4.02487000E-02 
   4.80331000E+00    9.19999000E-01   2.37594000E-01 
   1.45933000E+00   -3.03068000E-03   8.15854000E-01 
SP   1    1.000000
   4.83456000E-01    1.00000000E+00   1.00000000E+00 
SP   1    1.000000
   1.45585000E-01    1.00000000E+00   1.00000000E+00 
SP   1    1.000000
   4.38000000E-02    1.00000000E+00   1.00000000E+00 
SP   1    1.000000
   1.31927711E-02    1.00000000E+00   1.00000000E+00 
D    1    1.000000
   6.26000000E-01    1.00000000E+00 

12    0
S    3    1.000000
   3.38650000E+01    2.54938000E-02 
   5.09479000E+00    1.90373000E-01 
   1.15879000E+00    8.52161000E-01 
S    1    1.000000
   3.25840000E-01    1.00000000E+00 
S    1    1.000000
   1.02741000E-01    1.00000000E+00 
S    1    1.000000
   3.60000000E-02    1.00000000E+00 
P    1    1.000000
   7.50000000E-01    1.00000000E+00 

[MO]
Sym=X
Ene=0.926848
Spin=Alpha
Occup=1
1    1.33394e-08
2    -1.00077625e-07
3    3.13637763e-07
4    -4.88269557e-06
5    -2.1998121e-05
6    1.25217384e-05
7    -8.39315043e-07
8    -8.13513868e-06
9    -1.66308648e-15
10    3.94340001e-05
11    1.24039126e-05
12    3.77376237e-05
13    -1.27231404e-15
14    0.000153106796
15    3.82194879e-05
16    5.08415674e-05
17    -1.84056588e-15
18    0.000884734532
19    -5.25460546e-05
20    0.000733072978
21    1.47957665e-14
22    6.01111214e-05
23    -0.000382855678
24    0.00027537916
25    5.71861936e-14
26    1.3149758e-06
27    1.54982637e-16
28    -5.4198771e-06
29    -5.90978197e-16
30    2.86503785e-06
31    7.07474201e-06
32    -2.88163222e-05
33    -0.000173214238
34    -0.000256075948
35    -2.93972525e-06
36    9.72320232e-07
37    -1.89529332e-17
38    3.20813548e-06
39    3.28296735e-06
40    3.61175351e-05
41    0.000627868839
42    -1.00608645e-06
43    2.32599043e-06
44    -7.7609208e-16
45    0.000239309073
46    5.90590407e-05
47    0.000320754783
48    0.000288967993
49    -3.4097705e-06
50    -9.79517533e-05
51    1.48470494e-15
52    2.22157445e-08
53    1.81197366e-07
54    7.72426971e-07
55    2.79017839e-06
56    1.02075546e-06
57    -5.06094093e-05
58    -4.48170157e-07
59    4.80830573e-05
60    2.25892018e-05
61    1.05659051e-15
62    0.000282790155
63    0.000293872018
64    0.000119930985
65    -6.80476733e-16
66    -0.00023742724
67    -0.000107321586
68    -0.000153551269
69    5.14657185e-15
70    -0.000960559682
71    -0.000522063997
72    0.000226243671
73    3.2628748e-14
74    -0.000992331795
75    -4.87725515e-05
76    0.00036280072
77    -7.58424794e-15
78    0.000131687868
79    3.27486637e-16
80    -1.15536063e-05
81    5.21580307e-16
82    0.000144631451
83    7.02199459e-09
84    7.11832905e-08
85    2.23751087e-07
86    1.24159472e-06
87    -1.47818169e-06
88    -1.43334938e-05
89    1.47396708e-05
90    -1.70742571e-05
91    -3.79585781e-06
92    5.45017336e-16
93    1.94989978e-05
94    3.75857078e-05
95    -8.71320102e-06
96    -2.3124915e-16
97    7.0267732e-05
98    8.88009511e-06
99    1.50198537e-05
100    3.6209924e-15
101    -0.000117180152
102    2.07436911e-05
103    1.0874396e-06
104    -1.02275799e-14
105    -0.000608866112
106    -4.29677527e-05
107    6.29205192e-05
108    9.1473961e-15
109    6.12048262e-07
110    -1.82816215e-16
111    -4.46057132e-06
112    2.81749569e-16
113    2.36790065e-05
114    1.99425191e-08
115    1.71600019e-07
116    6.73133108e-07
117    2.75649149e-06
118    7.84909977e-07
119    -3.49502557e-05
120    -6.32250844e-07
121    -4.52477164e-05
122    2.68856971e-05
123    1.71917878e-15
124    0.000237413877
125    -0.000240535495
126    0.000121196006
127    3.96752605e-15
128    -0.000233743337
129    7.15617545e-05
130    -8.35691652e-05
131    4.17916873e-15
132    -0.00161372453
133    0.000725186507
134    0.000362916464
135    2.49818657e-14
136    0.000188095342
137    0.000313749022
138    -3.39384358e-05
139    5.01296262e-14
140    -0.000116906265
141    1.01869133e-15
142    2.29226173e-06
143    1.3585417e-16
144    0.000117698476
145    6.75299837e-09
146    6.96043178e-08
147    2.12608578e-07
148    1.21647562e-06
149    -1.65788209e-06
150    -1.4781146e-05
151    1.48716097e-05
152    1.71126002e-05
153    -3.30588076e-06
154    1.90839357e-15
155    1.99695102e-05
156    -3.72171176e-05
157    -1.24819314e-05
158    3.49219898e-15
159    5.78803734e-05
160    7.05429661e-06
161    3.89159518e-06
162    3.6687693e-15
163    -0.000115427779
164    -4.05096862e-05
165    -3.80829163e-06
166    1.80894263e-15
167    -0.000662758473
168    5.81921916e-05
169    2.18536518e-05
170    -2.8612546e-15
171    2.53173102e-06
172    -1.60271039e-16
173    -5.49706575e-06
174    -7.20842658e-16
175    1.89727149e-05
176    0.00109720579
177    0.00835412867
178    0.0409332105
179    0.138942343
180    0.335936158
181    0.144067137
182    0.46747609
183    -0.000136781356
184    -0.000239486829
185    1.83105408e-15
186    0.00426583673
187    8.55389683e-05
188    9.96583916e-05
189    1.19911539e-15
190    -0.00025601238
191    -6.43749551e-05
192    -8.29856492e-05
193    5.27877619e-15
194    0.00221326881
195    -1.57879341e-05
196    -0.000889208648
197    -1.68821747e-14
198    0.00188904616
199    0.000152997315
200    -0.000465908847
201    -2.72025318e-14
202    -1.07416441e-05
203    -3.97201304e-17
204    -4.87985019e-06
205    -1.98325691e-16
206    -1.38581565e-05
207    2.98401904e-07
208    2.31997352e-06
209    1.10252097e-05
210    3.87598367e-05
211    8.21370913e-05
212    -1.07299107e-06
213    0.000154782319
214    -4.19030037e-06
215    -2.1538557e-05
216    -1.07710711e-15
217    6.64405284e-05
218    5.32050744e-06
219    6.94837018e-05
220    1.36479985e-16
221    -7.34756437e-05
222    -8.34569081e-05
223    -0.000106687442
224    -2.72210227e-15
225    -0.000453125502
226    -0.000332542036
227    -0.000195484567
228    -1.48705371e-14
229    -0.00051704646
230    -0.000383875284
231    0.000196996209
232    -3.29479376e-14
233    7.15728077e-06
234    1.03241834e-16
235    -6.1990579e-06
236    -4.07712969e-16
237    -2.53012922e-05
238    -9.48377067e-10
239    3.58979994e-08
240    -1.31486812e-07
241    7.79807702e-07
242    -8.74114598e-06
243    -4.01308903e-05
244    2.5022926e-05
245    1.36952294e-06
246    -1.90205513e-05
247    -1.05341975e-15
248    7.67815529e-05
249    2.39813845e-06
250    8.36231004e-05
251    3.09173563e-16
252    -0.000224184235
253    0.000144672079
254    -0.000107783736
255    -3.64604553e-15
256    0.000332278876
257    5.51980104e-05
258    -6.72757086e-05
259    -1.09569283e-14
260    0.000393799624
261    -0.000267757844
262    -0.000487724171
263    -6.88933713e-14
264    -7.61472932e-06
265    3.16051717e-16
266    -1.28548659e-06
267    5.15165125e-16
268    -3.99495984e-05
269    7.35151954e-06
270    -7.11116449e-06
271    -0.000102135203
272    -0.0001011165
273    -2.95174532e-06
274    6.44997186e-06
275    -2.6061586e-16
[5D]