[Molden Format]
[Atoms] (Angs)
  C      1    6     -0.00714236     -1.70213747     -0.00000000
  H      2    1     -2.06882847     -1.44022412      0.00000000
  H      3    1     -0.12337987     -2.77567521      0.00000000
  H      4    1      0.04651892      1.98813947     -0.00000000
  C      5    6     -1.21953563      0.40211669      0.00000000
  O      6    8     -2.25921553      1.03043814      0.00000000
  C      7    6      1.28797806      0.34644937     -0.00000000
  O      8    8      2.31273661      1.00537216     -0.00000000
  N      9    7      0.03446295      0.97739857     -0.00000000
  N     10    7     -1.17287765     -0.98229824      0.00000000
  C     11    6      1.20107039     -1.10433419     -0.00000000
  H     12    1      2.11220096     -1.67699125     -0.00000000
[GTO]
1    0
S    1    1.000000
   4.56324000E+03    1.96665000E-03 
S    1    1.000000
   6.82024000E+02    1.52306000E-02 
S    1    1.000000
   1.54973000E+02    7.61269000E-02 
S    1    1.000000
   4.44553000E+01    2.60801000E-01 
S    1    1.000000
   1.30290000E+01    6.16462000E-01 
S    1    1.000000
   1.82773000E+00    2.21006000E-01 
SP   3    1.000000
   2.09642000E+01    1.14660000E-01   4.02487000E-02 
   4.80331000E+00    9.19999000E-01   2.37594000E-01 
   1.45933000E+00   -3.03068000E-03   8.15854000E-01 
SP   1    1.000000
   4.83456000E-01    1.00000000E+00   1.00000000E+00 
SP   1    1.000000
   1.45585000E-01    1.00000000E+00   1.00000000E+00 
SP   1    1.000000
   4.38000000E-02    1.00000000E+00   1.00000000E+00 
SP   1    1.000000
   1.31927711E-02    1.00000000E+00   1.00000000E+00 
D    1    1.000000
   6.26000000E-01    1.00000000E+00 

2    0
S    3    1.000000
   3.38650000E+01    2.54938000E-02 
   5.09479000E+00    1.90373000E-01 
   1.15879000E+00    8.52161000E-01 
S    1    1.000000
   3.25840000E-01    1.00000000E+00 
S    1    1.000000
   1.02741000E-01    1.00000000E+00 
S    1    1.000000
   3.60000000E-02    1.00000000E+00 
P    1    1.000000
   7.50000000E-01    1.00000000E+00 

3    0
S    3    1.000000
   3.38650000E+01    2.54938000E-02 
   5.09479000E+00    1.90373000E-01 
   1.15879000E+00    8.52161000E-01 
S    1    1.000000
   3.25840000E-01    1.00000000E+00 
S    1    1.000000
   1.02741000E-01    1.00000000E+00 
S    1    1.000000
   3.60000000E-02    1.00000000E+00 
P    1    1.000000
   7.50000000E-01    1.00000000E+00 

4    0
S    3    1.000000
   3.38650000E+01    2.54938000E-02 
   5.09479000E+00    1.90373000E-01 
   1.15879000E+00    8.52161000E-01 
S    1    1.000000
   3.25840000E-01    1.00000000E+00 
S    1    1.000000
   1.02741000E-01    1.00000000E+00 
S    1    1.000000
   3.60000000E-02    1.00000000E+00 
P    1    1.000000
   7.50000000E-01    1.00000000E+00 

5    0
S    1    1.000000
   4.56324000E+03    1.96665000E-03 
S    1    1.000000
   6.82024000E+02    1.52306000E-02 
S    1    1.000000
   1.54973000E+02    7.61269000E-02 
S    1    1.000000
   4.44553000E+01    2.60801000E-01 
S    1    1.000000
   1.30290000E+01    6.16462000E-01 
S    1    1.000000
   1.82773000E+00    2.21006000E-01 
SP   3    1.000000
   2.09642000E+01    1.14660000E-01   4.02487000E-02 
   4.80331000E+00    9.19999000E-01   2.37594000E-01 
   1.45933000E+00   -3.03068000E-03   8.15854000E-01 
SP   1    1.000000
   4.83456000E-01    1.00000000E+00   1.00000000E+00 
SP   1    1.000000
   1.45585000E-01    1.00000000E+00   1.00000000E+00 
SP   1    1.000000
   4.38000000E-02    1.00000000E+00   1.00000000E+00 
SP   1    1.000000
   1.31927711E-02    1.00000000E+00   1.00000000E+00 
D    1    1.000000
   6.26000000E-01    1.00000000E+00 

6    0
S    1    1.000000
   8.58850000E+03    1.89515000E-03 
S    1    1.000000
   1.29723000E+03    1.43859000E-02 
S    1    1.000000
   2.99296000E+02    7.07320000E-02 
S    1    1.000000
   8.73771000E+01    2.40001000E-01 
S    1    1.000000
   2.56789000E+01    5.94797000E-01 
S    1    1.000000
   3.74004000E+00    2.80802000E-01 
SP   3    1.000000
   4.21175000E+01    1.13889000E-01   3.65114000E-02 
   9.62837000E+00    9.20811000E-01   2.37153000E-01 
   2.85332000E+00   -3.27447000E-03   8.19702000E-01 
SP   1    1.000000
   9.05661000E-01    1.00000000E+00   1.00000000E+00 
SP   1    1.000000
   2.55611000E-01    1.00000000E+00   1.00000000E+00 
SP   1    1.000000
   8.45000000E-02    1.00000000E+00   1.00000000E+00 
SP   1    1.000000
   2.54518072E-02    1.00000000E+00   1.00000000E+00 
D    1    1.000000
   1.29200000E+00    1.00000000E+00 

7    0
S    1    1.000000
   4.56324000E+03    1.96665000E-03 
S    1    1.000000
   6.82024000E+02    1.52306000E-02 
S    1    1.000000
   1.54973000E+02    7.61269000E-02 
S    1    1.000000
   4.44553000E+01    2.60801000E-01 
S    1    1.000000
   1.30290000E+01    6.16462000E-01 
S    1    1.000000
   1.82773000E+00    2.21006000E-01 
SP   3    1.000000
   2.09642000E+01    1.14660000E-01   4.02487000E-02 
   4.80331000E+00    9.19999000E-01   2.37594000E-01 
   1.45933000E+00   -3.03068000E-03   8.15854000E-01 
SP   1    1.000000
   4.83456000E-01    1.00000000E+00   1.00000000E+00 
SP   1    1.000000
   1.45585000E-01    1.00000000E+00   1.00000000E+00 
SP   1    1.000000
   4.38000000E-02    1.00000000E+00   1.00000000E+00 
SP   1    1.000000
   1.31927711E-02    1.00000000E+00   1.00000000E+00 
D    1    1.000000
   6.26000000E-01    1.00000000E+00 

8    0
S    1    1.000000
   8.58850000E+03    1.89515000E-03 
S    1    1.000000
   1.29723000E+03    1.43859000E-02 
S    1    1.000000
   2.99296000E+02    7.07320000E-02 
S    1    1.000000
   8.73771000E+01    2.40001000E-01 
S    1    1.000000
   2.56789000E+01    5.94797000E-01 
S    1    1.000000
   3.74004000E+00    2.80802000E-01 
SP   3    1.000000
   4.21175000E+01    1.13889000E-01   3.65114000E-02 
   9.62837000E+00    9.20811000E-01   2.37153000E-01 
   2.85332000E+00   -3.27447000E-03   8.19702000E-01 
SP   1    1.000000
   9.05661000E-01    1.00000000E+00   1.00000000E+00 
SP   1    1.000000
   2.55611000E-01    1.00000000E+00   1.00000000E+00 
SP   1    1.000000
   8.45000000E-02    1.00000000E+00   1.00000000E+00 
SP   1    1.000000
   2.54518072E-02    1.00000000E+00   1.00000000E+00 
D    1    1.000000
   1.29200000E+00    1.00000000E+00 

9    0
S    1    1.000000
   6.29348000E+03    1.96979000E-03 
S    1    1.000000
   9.49044000E+02    1.49613000E-02 
S    1    1.000000
   2.18776000E+02    7.35006000E-02 
S    1    1.000000
   6.36916000E+01    2.48937000E-01 
S    1    1.000000
   1.88282000E+01    6.02460000E-01 
S    1    1.000000
   2.72023000E+00    2.56202000E-01 
SP   3    1.000000
   3.06331000E+01    1.11906000E-01   3.83119000E-02 
   7.02614000E+00    9.21666000E-01   2.37403000E-01 
   2.11205000E+00   -2.56919000E-03   8.17592000E-01 
SP   1    1.000000
   6.84009000E-01    1.00000000E+00   1.00000000E+00 
SP   1    1.000000
   2.00878000E-01    1.00000000E+00   1.00000000E+00 
SP   1    1.000000
   6.39000000E-02    1.00000000E+00   1.00000000E+00 
SP   1    1.000000
   1.92469880E-02    1.00000000E+00   1.00000000E+00 
D    1    1.000000
   9.13000000E-01    1.00000000E+00 

10    0
S    1    1.000000
   6.29348000E+03    1.96979000E-03 
S    1    1.000000
   9.49044000E+02    1.49613000E-02 
S    1    1.000000
   2.18776000E+02    7.35006000E-02 
S    1    1.000000
   6.36916000E+01    2.48937000E-01 
S    1    1.000000
   1.88282000E+01    6.02460000E-01 
S    1    1.000000
   2.72023000E+00    2.56202000E-01 
SP   3    1.000000
   3.06331000E+01    1.11906000E-01   3.83119000E-02 
   7.02614000E+00    9.21666000E-01   2.37403000E-01 
   2.11205000E+00   -2.56919000E-03   8.17592000E-01 
SP   1    1.000000
   6.84009000E-01    1.00000000E+00   1.00000000E+00 
SP   1    1.000000
   2.00878000E-01    1.00000000E+00   1.00000000E+00 
SP   1    1.000000
   6.39000000E-02    1.00000000E+00   1.00000000E+00 
SP   1    1.000000
   1.92469880E-02    1.00000000E+00   1.00000000E+00 
D    1    1.000000
   9.13000000E-01    1.00000000E+00 

11    0
S    1    1.000000
   4.56324000E+03    1.96665000E-03 
S    1    1.000000
   6.82024000E+02    1.52306000E-02 
S    1    1.000000
   1.54973000E+02    7.61269000E-02 
S    1    1.000000
   4.44553000E+01    2.60801000E-01 
S    1    1.000000
   1.30290000E+01    6.16462000E-01 
S    1    1.000000
   1.82773000E+00    2.21006000E-01 
SP   3    1.000000
   2.09642000E+01    1.14660000E-01   4.02487000E-02 
   4.80331000E+00    9.19999000E-01   2.37594000E-01 
   1.45933000E+00   -3.03068000E-03   8.15854000E-01 
SP   1    1.000000
   4.83456000E-01    1.00000000E+00   1.00000000E+00 
SP   1    1.000000
   1.45585000E-01    1.00000000E+00   1.00000000E+00 
SP   1    1.000000
   4.38000000E-02    1.00000000E+00   1.00000000E+00 
SP   1    1.000000
   1.31927711E-02    1.00000000E+00   1.00000000E+00 
D    1    1.000000
   6.26000000E-01    1.00000000E+00 

12    0
S    3    1.000000
   3.38650000E+01    2.54938000E-02 
   5.09479000E+00    1.90373000E-01 
   1.15879000E+00    8.52161000E-01 
S    1    1.000000
   3.25840000E-01    1.00000000E+00 
S    1    1.000000
   1.02741000E-01    1.00000000E+00 
S    1    1.000000
   3.60000000E-02    1.00000000E+00 
P    1    1.000000
   7.50000000E-01    1.00000000E+00 

[MO]
Sym=X
Ene=0.926848
Spin=Alpha
Occup=1
    -1.2547016e-09
    1.33394e-08
    -1.00077625e-07
    3.13637763e-07
    -4.88269557e-06
    -2.1998121e-05
    1.25217384e-05
    -8.39315043e-07
    -8.13513868e-06
    -1.66308648e-15
    3.94340001e-05
    1.24039126e-05
    3.77376237e-05
    -1.27231404e-15
    0.000153106796
    3.82194879e-05
    5.08415674e-05
    -1.84056588e-15
    0.000884734532
    -5.25460546e-05
    0.000733072978
    1.47957665e-14
    6.01111214e-05
    -0.000382855678
    0.00027537916
    5.71861936e-14
    1.3149758e-06
    1.54982637e-16
    -5.4198771e-06
    -5.90978197e-16
    2.86503785e-06
    7.07474201e-06
    -2.88163222e-05
    -0.000173214238
    -0.000256075948
    -2.93972525e-06
    9.72320232e-07
    -1.89529332e-17
    3.20813548e-06
    3.28296735e-06
    3.61175351e-05
    0.000627868839
    -1.00608645e-06
    2.32599043e-06
    -7.7609208e-16
    0.000239309073
    5.90590407e-05
    0.000320754783
    0.000288967993
    -3.4097705e-06
    -9.79517533e-05
    1.48470494e-15
    2.22157445e-08
    1.81197366e-07
    7.72426971e-07
    2.79017839e-06
    1.02075546e-06
    -5.06094093e-05
    -4.48170157e-07
    4.80830573e-05
    2.25892018e-05
    1.05659051e-15
    0.000282790155
    0.000293872018
    0.000119930985
    -6.80476733e-16
    -0.00023742724
    -0.000107321586
    -0.000153551269
    5.14657185e-15
    -0.000960559682
    -0.000522063997
    0.000226243671
    3.2628748e-14
    -0.000992331795
    -4.87725515e-05
    0.00036280072
    -7.58424794e-15
    0.000131687868
    3.27486637e-16
    -1.15536063e-05
    5.21580307e-16
    0.000144631451
    7.02199459e-09
    7.11832905e-08
    2.23751087e-07
    1.24159472e-06
    -1.47818169e-06
    -1.43334938e-05
    1.47396708e-05
    -1.70742571e-05
    -3.79585781e-06
    5.45017336e-16
    1.94989978e-05
    3.75857078e-05
    -8.71320102e-06
    -2.3124915e-16
    7.0267732e-05
    8.88009511e-06
    1.50198537e-05
    3.6209924e-15
    -0.000117180152
    2.07436911e-05
    1.0874396e-06
    -1.02275799e-14
    -0.000608866112
    -4.29677527e-05
    6.29205192e-05
    9.1473961e-15
    6.12048262e-07
    -1.82816215e-16
    -4.46057132e-06
    2.81749569e-16
    2.36790065e-05
    1.99425191e-08
    1.71600019e-07
    6.73133108e-07
    2.75649149e-06
    7.84909977e-07
    -3.49502557e-05
    -6.32250844e-07
    -4.52477164e-05
    2.68856971e-05
    1.71917878e-15
    0.000237413877
    -0.000240535495
    0.000121196006
    3.96752605e-15
    -0.000233743337
    7.15617545e-05
    -8.35691652e-05
    4.17916873e-15
    -0.00161372453
    0.000725186507
    0.000362916464
    2.49818657e-14
    0.000188095342
    0.000313749022
    -3.39384358e-05
    5.01296262e-14
    -0.000116906265
    1.01869133e-15
    2.29226173e-06
    1.3585417e-16
    0.000117698476
    6.75299837e-09
    6.96043178e-08
    2.12608578e-07
    1.21647562e-06
    -1.65788209e-06
    -1.4781146e-05
    1.48716097e-05
    1.71126002e-05
    -3.30588076e-06
    1.90839357e-15
    1.99695102e-05
    -3.72171176e-05
    -1.24819314e-05
    3.49219898e-15
    5.78803734e-05
    7.05429661e-06
    3.89159518e-06
    3.6687693e-15
    -0.000115427779
    -4.05096862e-05
    -3.80829163e-06
    1.80894263e-15
    -0.000662758473
    5.81921916e-05
    2.18536518e-05
    -2.8612546e-15
    2.53173102e-06
    -1.60271039e-16
    -5.49706575e-06
    -7.20842658e-16
    1.89727149e-05
    0.00109720579
    0.00835412867
    0.0409332105
    0.138942343
    0.335936158
    0.144067137
    0.46747609
    -0.000136781356
    -0.000239486829
    1.83105408e-15
    0.00426583673
    8.55389683e-05
    9.96583916e-05
    1.19911539e-15
    -0.00025601238
    -6.43749551e-05
    -8.29856492e-05
    5.27877619e-15
    0.00221326881
    -1.57879341e-05
    -0.000889208648
    -1.68821747e-14
    0.00188904616
    0.000152997315
    -0.000465908847
    -2.72025318e-14
    -1.07416441e-05
    -3.97201304e-17
    -4.87985019e-06
    -1.98325691e-16
    -1.38581565e-05
    2.98401904e-07
    2.31997352e-06
    1.10252097e-05
    3.87598367e-05
    8.21370913e-05
    -1.07299107e-06
    0.000154782319
    -4.19030037e-06
    -2.1538557e-05
    -1.07710711e-15
    6.64405284e-05
    5.32050744e-06
    6.94837018e-05
    1.36479985e-16
    -7.34756437e-05
    -8.34569081e-05
    -0.000106687442
    -2.72210227e-15
    -0.000453125502
    -0.000332542036
    -0.000195484567
    -1.48705371e-14
    -0.00051704646
    -0.000383875284
    0.000196996209
    -3.29479376e-14
    7.15728077e-06
    1.03241834e-16
    -6.1990579e-06
    -4.07712969e-16
    -2.53012922e-05
    -9.48377067e-10
    3.58979994e-08
    -1.31486812e-07
    7.79807702e-07
    -8.74114598e-06
    -4.01308903e-05
    2.5022926e-05
    1.36952294e-06
    -1.90205513e-05
    -1.05341975e-15
    7.67815529e-05
    2.39813845e-06
    8.36231004e-05
    3.09173563e-16
    -0.000224184235
    0.000144672079
    -0.000107783736
    -3.64604553e-15
    0.000332278876
    5.51980104e-05
    -6.72757086e-05
    -1.09569283e-14
    0.000393799624
    -0.000267757844
    -0.000487724171
    -6.88933713e-14
    -7.61472932e-06
    3.16051717e-16
    -1.28548659e-06
    5.15165125e-16
    -3.99495984e-05
    7.35151954e-06
    -7.11116449e-06
    -0.000102135203
    -0.0001011165
    -2.95174532e-06
    6.44997186e-06
    -2.6061586e-16
Sym=X
Ene=0.914977
Spin=Alpha
Occup=1
    -2.46427549e-08
    -2.37961115e-07
    -7.84429625e-07
    -3.83804189e-06
    7.41453063e-06
    0.000101807688
    -2.94491239e-05
    2.76616503e-05
    -1.82195277e-05
    -4.58329459e-16
    -0.000308948243
    0.000425827518
    -0.000266774506
    -2.10546696e-15
    -0.000114805822
    -3.01148787e-05
    -0.000163552179
    -1.03986149e-15
    0.00195408015
    -0.000109300265
    0.00131661861
    -1.51967958e-14
    -0.000111248553
    -0.00027778197
    0.000435513836
    -9.79882641e-14
    0.000241883194
    -5.79680056e-17
    5.67677569e-05
    7.64255837e-16
    -8.43082011e-05
    -0.00021948792
    -0.000183533448
    -0.000214789833
    -0.000218992181
    -0.00010669436
    -5.26569641e-05
    -1.46674844e-15
    -9.33011881e-06
    -0.000127639208
    0.000124787397
    0.00100028488
    9.6140127e-06
    -5.58918619e-05
    -4.68988648e-16
    -4.95730668e-06
    1.91277526e-05
    0.000268922567
    0.000500883594
    -7.4128072e-07
    7.02413301e-07
    6.65347456e-16
    -1.72087832e-08
    -1.97557478e-07
    -4.57195868e-07
    -3.25459773e-06
    1.19191098e-05
    0.000107884687
    -3.14077559e-05
    2.49343505e-06
    3.08156158e-05
    -1.55245955e-15
    -0.000334859061
    -2.43394231e-05
    0.000459650528
    3.6350344e-16
    -0.000103425912
    -0.000178973558
    0.00016155894
    -6.17289217e-15
    0.000545770596
    0.000104899221
    -0.000195367896
    -2.82871307e-14
    0.00070258038
    0.00031287788
    0.000213032601
    3.92880294e-14
    4.61206787e-05
    7.89177836e-16
    6.24434617e-05
    3.25655094e-16
    0.000243684494
    -7.01202452e-09
    -6.53862555e-08
    -2.36633449e-07
    -1.12743795e-06
    3.47053872e-07
    9.77702791e-06
    -1.16034968e-05
    2.42722879e-06
    -1.64585526e-05
    -8.44785795e-16
    -1.00833253e-05
    -1.81956177e-05
    2.67240681e-05
    8.32079929e-16
    -0.000117932513
    -3.99633111e-05
    3.65232621e-06
    -6.51019426e-15
    -5.50909027e-05
    -7.14883947e-06
    -1.10694552e-06
    1.28528007e-14
    0.00035280266
    5.09855596e-05
    4.40284249e-05
    -2.52602778e-14
    2.01610853e-05
    1.63744402e-16
    3.45250261e-06
    -5.38372723e-17
    1.14398253e-05
    2.76042177e-10
    -7.13110266e-09
    3.05029908e-08
    -1.52450625e-07
    2.05088531e-06
    1.07468598e-05
    -6.04871887e-06
    -5.32672208e-06
    -6.10817041e-06
    1.40472624e-15
    -5.84752625e-06
    2.3477479e-05
    2.94879816e-05
    2.6978051e-15
    -0.00049600521
    5.32066586e-05
    6.31452669e-06
    1.91816778e-15
    -0.00137138726
    0.000583831883
    0.00032170422
    -1.24885001e-14
    0.000106229711
    0.000537687859
    -0.000146820652
    -8.92948336e-14
    2.42697942e-06
    5.89277469e-16
    9.58998101e-06
    5.95200043e-16
    6.33167173e-06
    5.46914593e-10
    -2.913613e-09
    3.66697136e-08
    -6.83938378e-08
    1.6158035e-06
    6.32963055e-06
    -3.81048357e-06
    -8.70006714e-07
    -5.50620518e-07
    1.22863725e-15
    -1.42806927e-05
    5.12156524e-06
    4.13884203e-06
    1.86810071e-15
    4.28424159e-05
    -2.35610037e-05
    -1.42252101e-05
    3.36581366e-15
    0.00013368078
    -8.47523263e-05
    -4.22252915e-05
    6.08966384e-15
    -0.000417180357
    1.68130863e-05
    -7.75287471e-05
    4.46708937e-15
    -7.68796524e-07
    -1.9178127e-16
    -3.56470592e-07
    -5.47570576e-16
    -1.80754394e-07
    2.88862575e-07
    2.16387653e-06
    1.08541211e-05
    3.58620097e-05
    9.54520897e-05
    6.9868159e-05
    0.000101201514
    -1.39933693e-05
    -1.13857211e-05
    6.14022866e-16
    -4.87777813e-05
    4.58160588e-05
    3.23829344e-05
    1.0704766e-15
    0.000104523644
    4.64321838e-05
    -0.000163337864
    7.99752142e-16
    0.000790833833
    -2.41030388e-05
    -0.000694836773
    1.46472231e-14
    0.000836116745
    0.000476936405
    -0.000373986989
    2.95780963e-14
    -2.17191444e-05
    1.22496767e-16
    6.65339364e-06
    5.445887e-16
    -1.45662328e-05
    -0.001096865
    -0.00835148673
    -0.0409201438
    -0.138896497
    -0.335840899
    -0.144546112
    -0.467065634
    -0.000422787222
    -0.000279073356
    -2.08422791e-15
    -0.00482812996
    0.000293894034
    0.000135276879
    -1.20354344e-15
    0.00128475575
    -6.8313532e-06
    3.79149126e-05
    -7.12481303e-15
    -0.0025634055
    -0.000747655054
    -0.000398925152
    1.62840443e-14
    -0.00183185834
    -0.000513183948
    -4.64036934e-05
    2.84326408e-14
    -8.07903599e-05
    -1.26912597e-16
    -0.00032623889
    9.90757232e-17
    -4.53812523e-05
    9.44188717e-10
    -2.54595784e-08
    1.07048455e-07
    -5.40133959e-07
    7.27352088e-06
    3.96069844e-05
    -2.13304195e-05
    -1.26929219e-05
    -4.71823394e-06
    9.62621392e-16
    -0.000104353609
    9.03691657e-05
    4.12824794e-05
    -1.66780848e-15
    0.000310768356
    -0.00020396007
    0.000151387463
    5.09612819e-15
    -0.000552704996
    0.000107731799
    -0.000220475661
    3.90343434e-15
    -0.00029945837
    -0.000460032433
    -0.000753082218
    1.2423913e-13
    -2.297272e-05
    9.946441e-16
    4.30281056e-06
    6.49921541e-16
    -5.02646334e-05
    -8.27147435e-06
    2.68606513e-05
    8.24195147e-05
    -7.1776686e-05
    7.34725783e-06
    3.31228006e-06
    1.19912837e-16
Sym=X
Ene=0.005048
Spin=Alpha
Occup=1
    1.26690409e-09
    -1.32217574e-08
    1.00466523e-07
    -3.1174105e-07
    4.87906035e-06
    2.19478872e-05
    -1.2507242e-05
    8.25623303e-07
    8.14416447e-06
    1.66332046e-15
    -3.92815114e-05
    -1.26145061e-05
    -3.76057549e-05
    1.27336501e-15
    -0.000153047543
    -3.82042433e-05
    -5.07588754e-05
    1.84111342e-15
    -0.000885694667
    5.25977024e-05
    -0.000733716162
    -1.47882132e-14
    -6.00577671e-05
    0.000382993416
    -0.000275596371
    -5.71383325e-14
    -1.43465033e-06
    -1.54951073e-16
    5.39177174e-06
    5.90587326e-16
    -2.82326385e-06
    -6.96622168e-06
    2.89071305e-05
    0.0001733205
    0.000256182896
    2.99247897e-06
    -9.46211072e-07
    1.96985754e-17
    -3.20351874e-06
    -3.21966627e-06
    -3.61779058e-05
    -0.000628357748
    1.00131996e-06
    -2.29830325e-06
    7.76327163e-16
    -0.00023930668
    -5.90684307e-05
    -0.000320887483
    -0.00028921701
    3.41011513e-06
    9.79513835e-05
    -1.4850335e-15
    -2.22071612e-08
    -1.81098859e-07
    -7.72198224e-07
    -2.78854913e-06
    -1.02657255e-06
    5.05569736e-05
    4.63704582e-07
    -4.80840937e-05
    -2.26045569e-05
    -1.05579234e-15
    -0.000282627627
    -0.000293856895
    -0.000120160187
    6.80346591e-16
    0.000237483578
    0.000107408738
    0.000153472268
    -5.14344356e-15
    0.000960308625
    0.000522000874
    -0.000226137026
    -3.26146659e-14
    0.000991981485
    4.86183965e-05
    -0.000362905396
    7.56514609e-15
    -0.000131709052
    -3.27877297e-16
    1.15233401e-05
    -5.21751629e-16
    -0.00014475285
    -1.3256567e-08
    -1.18604295e-07
    -4.56311597e-07
    -2.03289603e-06
    -4.81854535e-07
    1.33977991e-05
    -1.75497864e-05
    1.70630902e-05
    3.80997583e-06
    -5.44582324e-16
    -1.95248551e-05
    -3.75720111e-05
    8.69713909e-06
    2.30871592e-16
    -7.02044333e-05
    -8.86224261e-06
    -1.502045e-05
    -3.61771892e-15
    0.000117189522
    -2.07415365e-05
    -1.08634311e-06
    1.02212826e-14
    0.000608656308
    4.29356727e-05
    -6.2938281e-05
    -9.13501763e-15
    -6.22682639e-07
    1.8273052e-16
    4.4584726e-06
    -2.81718092e-16
    -2.36843556e-05
    -1.99425985e-08
    -1.71595881e-07
    -6.73146067e-07
    -2.756401e-06
    -7.8585785e-07
    3.49456872e-05
    6.35228961e-07
    4.52501908e-05
    -2.68827884e-05
    -1.71989017e-15
    -0.000237413431
    0.000240521514
    -0.000121212141
    -3.96890583e-15
    0.000233991841
    -7.15882627e-05
    8.35657737e-05
    -4.18014512e-15
    0.0016144167
    -0.000725466214
    -0.000363069753
    -2.49756979e-14
    -0.00018814641
    -0.000314013825
    3.40087292e-05
    -5.00859839e-14
    0.000116903705
    -1.01898395e-15
    -2.29648813e-06
    -1.36160273e-16
    -0.000117702234
    -1.18293608e-08
    -1.08217263e-07
    -4.01963198e-07
    -1.860803e-06
    6.23078769e-08
    1.4020101e-05
    -1.71609088e-05
    -1.71044242e-05
    3.3109468e-06
    -1.90902139e-15
    -1.99880691e-05
    3.72109876e-05
    1.24776285e-05
    -3.49314864e-15
    -5.78967715e-05
    -7.04150314e-06
    -3.88382178e-06
    -3.67048693e-15
    0.00011534931
    4.05522078e-05
    3.82952255e-06
    -1.81203258e-15
    0.00066294647
    -5.81967097e-05
    -2.18137932e-05
    2.85908733e-15
    -2.53078596e-06
    1.60370044e-16
    5.49675689e-06
    7.21118184e-16
    -1.89723745e-05
    -0.0010972058
    -0.00835412874
    -0.0409332109
    -0.138942344
    -0.335936165
    -0.144067153
    -0.467476084
    0.000136788242
    0.000239492442
    -1.83135263e-15
    -0.00426581241
    -8.55615536e-05
    -9.96743831e-05
    -1.19964274e-15
    0.000255959907
    6.43520828e-05
    8.30669483e-05
    -5.27917177e-15
    -0.00221365994
    1.58006053e-05
    0.000889550632
    1.68749214e-14
    -0.00188943941
    -0.0001532334
    0.000466094006
    2.71878414e-14
    1.07524239e-05
    3.96602191e-17
    4.87660719e-06
    1.98046469e-16
    1.38650372e-05
    2.44188585e-07
    1.81128878e-06
    9.21691797e-06
    2.99486308e-05
    8.39946775e-05
    7.25763592e-05
    7.62627369e-05
    4.39939216e-06
    2.1676684e-05
    1.07815532e-15
    -6.40524358e-05
    -5.46576917e-06
    -6.95508804e-05
    -1.3583705e-16
    7.28395556e-05
    8.3459835e-05
    0.000106668534
    2.72567778e-15
    0.000454389196
    0.000332910928
    0.000195681786
    1.48624765e-14
    0.000517964965
    0.000384125324
    -0.000196967762
    3.29340182e-14
    -7.11717887e-06
    -1.03172906e-16
    6.3604582e-06
    4.07662966e-16
    2.53238885e-05
    9.47900488e-10
    -3.58854618e-08
    1.31433435e-07
    -7.79541345e-07
    8.73754488e-06
    4.01113177e-05
    -2.50123871e-05
    -1.36321681e-06
    1.90229418e-05
    1.05293171e-15
    -7.67299084e-05
    -2.44285295e-06
    -8.36438273e-05
    -3.08369542e-16
    0.000224028021
    -0.000144569584
    0.00010770835
    3.64350118e-15
    -0.000332005876
    -5.5255718e-05
    6.73827932e-05
    1.0954885e-14
    -0.000393653535
    0.000267984496
    0.000488097862
    6.88326156e-14
    7.62587076e-06
    -3.16549597e-16
    1.28334588e-06
    -5.15492421e-16
    3.99746453e-05
    -7.34746377e-06
    7.09747392e-06
    0.000102094341
    0.000101156716
    2.94820775e-06
    -6.45164578e-06
    2.60548342e-16
Sym=X
Ene=0.020324
Spin=Alpha
Occup=1
    -1.26305283e-09
    1.32588839e-08
    -1.00343778e-07
    3.1233959e-07
    -4.88020753e-06
    -2.19637437e-05
    1.25118158e-05
    -8.29938968e-07
    -8.14131386e-06
    -1.66326188e-15
    3.93296478e-05
    1.25479511e-05
    3.76473809e-05
    -1.27305275e-15
    0.000153066291
    3.82089822e-05
    5.07847838e-05
    -1.84097646e-15
    0.000885378352
    -5.25818574e-05
    0.000733509074
    1.47904849e-14
    6.00724368e-05
    -0.000382951373
    0.000275528584
    5.71542441e-14
    1.39682408e-06
    1.5495731e-16
    -5.40064109e-06
    -5.90707367e-16
    2.83644486e-06
    7.00051257e-06
    -2.88785695e-05
    -0.00017328698
    -0.000256148965
    -2.97581157e-06
    9.54404588e-07
    -1.94745948e-17
    3.2049827e-06
    3.23958881e-06
    3.61586956e-05
    0.000628201003
    -1.00283114e-06
    2.30703398e-06
    -7.76261037e-16
    0.000239307457
    5.90654559e-05
    0.000320845275
    0.000289138791
    -3.40994454e-06
    -9.79514981e-05
    1.48493095e-15
    2.22098309e-08
    1.81129453e-07
    7.72269074e-07
    2.78905076e-06
    1.02469285e-06
    -5.05741115e-05
    -4.58815882e-07
    4.80836446e-05
    2.25997828e-05
    1.05603297e-15
    0.000282680924
    0.000293859653
    0.000120089034
    -6.80409245e-16
    -0.000237469039
    -0.000107379276
    -0.000153498426
    5.14440408e-15
    -0.000960395796
    -0.000522008354
    0.000226163579
    3.26190003e-14
    -0.000992084927
    -4.86662699e-05
    0.000362874004
    -7.57159261e-15
    0.000131701321
    3.27757246e-16
    -1.15333061e-05
    5.21700535e-16
    0.000144715084
    1.5385612e-08
    1.34802008e-07
    5.35720639e-07
    2.30319463e-06
    1.15036015e-06
    -1.30817802e-05
    1.8512152e-05
    -1.7060064e-05
    -3.80944122e-06
    5.44714482e-16
    1.95369219e-05
    3.75732313e-05
    -8.70035372e-06
    -2.31000113e-16
    7.02214891e-05
    8.86935547e-06
    1.50194147e-05
    3.6187387e-15
    -0.000117172849
    2.07432703e-05
    1.08594086e-06
    -1.02233007e-14
    -0.000608687885
    -4.29394699e-05
    6.29297197e-05
    9.13909596e-15
    6.19753696e-07
    -1.82755737e-16
    -4.45888326e-06
    2.81726494e-16
    2.36824678e-05
    1.99425857e-08
    1.71597374e-07
    6.73142323e-07
    2.7564343e-06
    7.85569389e-07
    -3.49469426e-05
    -6.34275635e-07
    -4.52494451e-05
    2.68836767e-05
    1.71966918e-15
    0.000237412928
    -0.000240526686
    0.000121206602
    3.96849951e-15
    -0.000233911985
    7.15810381e-05
    -8.35660108e-05
    4.1798146e-15
    -0.00161420368
    0.000725386807
    0.000363025085
    2.49776048e-14
    0.000188128545
    0.000313931522
    -3.39887177e-05
    5.01004453e-14
    -0.000116904892
    1.01889691e-15
    2.29529775e-06
    1.36069027e-16
    0.000117700892
    8.73251795e-09
    8.46603663e-08
    2.86449437e-07
    1.46771042e-06
    -1.03548427e-06
    -1.44834857e-05
    1.57637392e-05
    1.71092941e-05
    -3.30793808e-06
    1.90883421e-15
    1.99747255e-05
    -3.72140101e-05
    -1.24796492e-05
    3.49286353e-15
    5.78925079e-05
    7.04618899e-06
    3.88660716e-06
    3.6699646e-15
    -0.000115380247
    -4.05383598e-05
    -3.82229492e-06
    1.81113153e-15
    -0.0006629064
    5.81986362e-05
    2.18272758e-05
    -2.85986566e-15
    2.53124202e-06
    -1.60340615e-16
    -5.49699056e-06
    -7.21034283e-16
    1.89725524e-05
    0.00109720582
    0.00835412894
    0.0409332119
    0.138942347
    0.335936171
    0.144067152
    0.467476098
    -0.000136785989
    -0.000239490685
    1.83125863e-15
    0.00426582032
    8.55541526e-05
    9.96693518e-05
    1.19947572e-15
    -0.000255976588
    -6.43593139e-05
    -8.30412788e-05
    5.2790571e-15
    0.0022135374
    -1.57965869e-05
    -0.000889442045
    -1.68771809e-14
    0.00188931244
    0.000153172754
    -0.000466035942
    -2.71923904e-14
    -1.07489884e-05
    -3.96769321e-17
    -4.877638e-06
    -1.98130833e-16
    -1.38627801e-05
    -7.29085174e-08
    -5.07169058e-07
    -2.82706611e-06
    -8.25935925e-06
    -3.15517251e-05
    -5.00049295e-05
    -3.32844386e-06
    -4.3333529e-06
    -2.16331372e-05
    -1.07783938e-15
    6.48064575e-05
    5.41981551e-06
    6.95298682e-05
    1.36018412e-16
    -7.30405797e-05
    -8.34590155e-05
    -0.000106674585
    -2.72461227e-15
    -0.000453990663
    -0.00033279505
    -0.000195619693
    -1.4864939e-14
    -0.000517682746
    -0.000384045224
    0.000196973826
    -3.29385778e-14
    7.1297648e-06
    1.03193086e-16
    -6.30952345e-06
    -4.07679957e-16
    -2.53168487e-05
    -9.480535e-10
    3.58894048e-08