[Molden Format]
[Atoms] (Angs)
  C      1    6     -0.00714236     -1.70213747     -0.00000000
  H      2    1     -2.06882847     -1.44022412      0.00000000
  H      3    1     -0.12337987     -2.77567521      0.00000000
  H      4    1      0.04651892      1.98813947     -0.00000000
  C      5    6     -1.21953563      0.40211669      0.00000000
  O      6    8     -2.25921553      1.03043814      0.00000000
  C      7    6      1.28797806      0.34644937     -0.00000000
  O      8    8      2.31273661      1.00537216     -0.00000000
  N      9    7      0.03446295      0.97739857     -0.00000000
  N     10    7     -1.17287765     -0.98229824      0.00000000
  C     11    6      1.20107039     -1.10433419     -0.00000000
  H     12    1      2.11220096     -1.67699125     -0.00000000
[GTO]
1    0
S    1    1.000000
   4.56324000E+03    1.96665000E-03 
S    1    1.000000
   6.82024000E+02    1.52306000E-02 
S    1    1.000000
   1.54973000E+02    7.61269000E-02 
S    1    1.000000
   4.44553000E+01    2.60801000E-01 
S    1    1.000000
   1.30290000E+01    6.16462000E-01 
S    1    1.000000
   1.82773000E+00    2.21006000E-01 
SP   3    1.000000
   2.09642000E+01    1.14660000E-01   4.02487000E-02 
   4.80331000E+00    9.19999000E-01   2.37594000E-01 
   1.45933000E+00   -3.03068000E-03   8.15854000E-01 
SP   1    1.000000
   4.83456000E-01    1.00000000E+00   1.00000000E+00 
SP   1    1.000000
   1.45585000E-01    1.00000000E+00   1.00000000E+00 
SP   1    1.000000
   4.38000000E-02    1.00000000E+00   1.00000000E+00 
SP   1    1.000000
   1.31927711E-02    1.00000000E+00   1.00000000E+00 
D    1    1.000000
   6.26000000E-01    1.00000000E+00 

2    0
S    3    1.000000
   3.38650000E+01    2.54938000E-02 
   5.09479000E+00    1.90373000E-01 
   1.15879000E+00    8.52161000E-01 
S    1    1.000000
   3.25840000E-01    1.00000000E+00 
S    1    1.000000
   1.02741000E-01    1.00000000E+00 
S    1    1.000000
   3.60000000E-02    1.00000000E+00 
P    1    1.000000
   7.50000000E-01    1.00000000E+00 

3    0
S    3    1.000000
   3.38650000E+01    2.54938000E-02 
   5.09479000E+00    1.90373000E-01 
   1.15879000E+00    8.52161000E-01 
S    1    1.000000
   3.25840000E-01    1.00000000E+00 
S    1    1.000000
   1.02741000E-01    1.00000000E+00 
S    1    1.000000
   3.60000000E-02    1.00000000E+00 
P    1    1.000000
   7.50000000E-01    1.00000000E+00 

4    0
S    3    1.000000
   3.38650000E+01    2.54938000E-02 
   5.09479000E+00    1.90373000E-01 
   1.15879000E+00    8.52161000E-01 
S    1    1.000000
   3.25840000E-01    1.00000000E+00 
S    1    1.000000
   1.02741000E-01    1.00000000E+00 
S    1    1.000000
   3.60000000E-02    1.00000000E+00 
P    1    1.000000
   7.50000000E-01    1.00000000E+00 

5    0
S    1    1.000000
   4.56324000E+03    1.96665000E-03 
S    1    1.000000
   6.82024000E+02    1.52306000E-02 
S    1    1.000000
   1.54973000E+02    7.61269000E-02 
S    1    1.000000
   4.44553000E+01    2.60801000E-01 
S    1    1.000000
   1.30290000E+01    6.16462000E-01 
S    1    1.000000
   1.82773000E+00    2.21006000E-01 
SP   3    1.000000
   2.09642000E+01    1.14660000E-01   4.02487000E-02 
   4.80331000E+00    9.19999000E-01   2.37594000E-01 
   1.45933000E+00   -3.03068000E-03   8.15854000E-01 
SP   1    1.000000
   4.83456000E-01    1.00000000E+00   1.00000000E+00 
SP   1    1.000000
   1.45585000E-01    1.00000000E+00   1.00000000E+00 
SP   1    1.000000
   4.38000000E-02    1.00000000E+00   1.00000000E+00 
SP   1    1.000000
   1.31927711E-02    1.00000000E+00   1.00000000E+00 
D    1    1.000000
   6.26000000E-01    1.00000000E+00 

6    0
S    1    1.000000
   8.58850000E+03    1.89515000E-03 
S    1    1.000000
   1.29723000E+03    1.43859000E-02 
S    1    1.000000
   2.99296000E+02    7.07320000E-02 
S    1    1.000000
   8.73771000E+01    2.40001000E-01 
S    1    1.000000
   2.56789000E+01    5.94797000E-01 
S    1    1.000000
   3.74004000E+00    2.80802000E-01 
SP   3    1.000000
   4.21175000E+01    1.13889000E-01   3.65114000E-02 
   9.62837000E+00    9.20811000E-01   2.37153000E-01 
   2.85332000E+00   -3.27447000E-03   8.19702000E-01 
SP   1    1.000000
   9.05661000E-01    1.00000000E+00   1.00000000E+00 
SP   1    1.000000
   2.55611000E-01    1.00000000E+00   1.00000000E+00 
SP   1    1.000000
   8.45000000E-02    1.00000000E+00   1.00000000E+00 
SP   1    1.000000
   2.54518072E-02    1.00000000E+00   1.00000000E+00 
D    1    1.000000
   1.29200000E+00    1.00000000E+00 

7    0
S    1    1.000000
   4.56324000E+03    1.96665000E-03 
S    1    1.000000
   6.82024000E+02    1.52306000E-02 
S    1    1.000000
   1.54973000E+02    7.61269000E-02 
S    1    1.000000
   4.44553000E+01    2.60801000E-01 
S    1    1.000000
   1.30290000E+01    6.16462000E-01 
S    1    1.000000
   1.82773000E+00    2.21006000E-01 
SP   3    1.000000
   2.09642000E+01    1.14660000E-01   4.02487000E-02 
   4.80331000E+00    9.19999000E-01   2.37594000E-01 
   1.45933000E+00   -3.03068000E-03   8.15854000E-01 
SP   1    1.000000
   4.83456000E-01    1.00000000E+00   1.00000000E+00 
SP   1    1.000000
   1.45585000E-01    1.00000000E+00   1.00000000E+00 
SP   1    1.000000
   4.38000000E-02    1.00000000E+00   1.00000000E+00 
SP   1    1.000000
   1.31927711E-02    1.00000000E+00   1.00000000E+00 
D    1    1.000000
   6.26000000E-01    1.00000000E+00 

8    0
S    1    1.000000
   8.58850000E+03    1.89515000E-03 
S    1    1.000000
   1.29723000E+03    1.43859000E-02 
S    1    1.000000
   2.99296000E+02    7.07320000E-02 
S    1    1.000000
   8.73771000E+01    2.40001000E-01 
S    1    1.000000
   2.56789000E+01    5.94797000E-01 
S    1    1.000000
   3.74004000E+00    2.80802000E-01 
SP   3    1.000000
   4.21175000E+01    1.13889000E-01   3.65114000E-02 
   9.62837000E+00    9.20811000E-01   2.37153000E-01 
   2.85332000E+00   -3.27447000E-03   8.19702000E-01 
SP   1    1.000000
   9.05661000E-01    1.00000000E+00   1.00000000E+00 
SP   1    1.000000
   2.55611000E-01    1.00000000E+00   1.00000000E+00 
SP   1    1.000000
   8.45000000E-02    1.00000000E+00   1.00000000E+00 
SP   1    1.000000
   2.54518072E-02    1.00000000E+00   1.00000000E+00 
D    1    1.000000
   1.29200000E+00    1.00000000E+00 

9    0
S    1    1.000000
   6.29348000E+03    1.96979000E-03 
S    1    1.000000
   9.49044000E+02    1.49613000E-02 
S    1    1.000000
   2.18776000E+02    7.35006000E-02 
S    1    1.000000
   6.36916000E+01    2.48937000E-01 
S    1    1.000000
   1.88282000E+01    6.02460000E-01 
S    1    1.000000
   2.72023000E+00    2.56202000E-01 
SP   3    1.000000
   3.06331000E+01    1.11906000E-01   3.83119000E-02 
   7.02614000E+00    9.21666000E-01   2.37403000E-01 
   2.11205000E+00   -2.56919000E-03   8.17592000E-01 
SP   1    1.000000
   6.84009000E-01    1.00000000E+00   1.00000000E+00 
SP   1    1.000000
   2.00878000E-01    1.00000000E+00   1.00000000E+00 
SP   1    1.000000
   6.39000000E-02    1.00000000E+00   1.00000000E+00 
SP   1    1.000000
   1.92469880E-02    1.00000000E+00   1.00000000E+00 
D    1    1.000000
   9.13000000E-01    1.00000000E+00 

10    0
S    1    1.000000
   6.29348000E+03    1.96979000E-03 
S    1    1.000000
   9.49044000E+02    1.49613000E-02 
S    1    1.000000
   2.18776000E+02    7.35006000E-02 
S    1    1.000000
   6.36916000E+01    2.48937000E-01 
S    1    1.000000
   1.88282000E+01    6.02460000E-01 
S    1    1.000000
   2.72023000E+00    2.56202000E-01 
SP   3    1.000000
   3.06331000E+01    1.11906000E-01   3.83119000E-02 
   7.02614000E+00    9.21666000E-01   2.37403000E-01 
   2.11205000E+00   -2.56919000E-03   8.17592000E-01 
SP   1    1.000000
   6.84009000E-01    1.00000000E+00   1.00000000E+00 
SP   1    1.000000
   2.00878000E-01    1.00000000E+00   1.00000000E+00 
SP   1    1.000000
   6.39000000E-02    1.00000000E+00   1.00000000E+00 
SP   1    1.000000
   1.92469880E-02    1.00000000E+00   1.00000000E+00 
D    1    1.000000
   9.13000000E-01    1.00000000E+00 

11    0
S    1    1.000000
   4.56324000E+03    1.96665000E-03 
S    1    1.000000
   6.82024000E+02    1.52306000E-02 
S    1    1.000000
   1.54973000E+02    7.61269000E-02 
S    1    1.000000
   4.44553000E+01    2.60801000E-01 
S    1    1.000000
   1.30290000E+01    6.16462000E-01 
S    1    1.000000
   1.82773000E+00    2.21006000E-01 
SP   3    1.000000
   2.09642000E+01    1.14660000E-01   4.02487000E-02 
   4.80331000E+00    9.19999000E-01   2.37594000E-01 
   1.45933000E+00   -3.03068000E-03   8.15854000E-01 
SP   1    1.000000
   4.83456000E-01    1.00000000E+00   1.00000000E+00 
SP   1    1.000000
   1.45585000E-01    1.00000000E+00   1.00000000E+00 
SP   1    1.000000
   4.38000000E-02    1.00000000E+00   1.00000000E+00 
SP   1    1.000000
   1.31927711E-02    1.00000000E+00   1.00000000E+00 
D    1    1.000000
   6.26000000E-01    1.00000000E+00 

12    0
S    3    1.000000
   3.38650000E+01    2.54938000E-02 
   5.09479000E+00    1.90373000E-01 
   1.15879000E+00    8.52161000E-01 
S    1    1.000000
   3.25840000E-01    1.00000000E+00 
S    1    1.000000
   1.02741000E-01    1.00000000E+00 
S    1    1.000000
   3.60000000E-02    1.00000000E+00 
P    1    1.000000
   7.50000000E-01    1.00000000E+00 

[MO]
Sym=X
Ene=0.006783
Spin=Alpha
Occup=1
1    -1.21915422e-09
2    1.36831451e-08
3    -9.89472808e-08
4    3.19183783e-07
5    -4.89348415e-06
6    -2.21454432e-05
7    1.25644363e-05
8    -8.79218921e-07
9    -8.10885771e-06
10    -1.66247463e-15
11    3.98809663e-05
12    1.17887606e-05
13    3.81230435e-05
14    -1.26933891e-15
15    0.000153265917
16    3.82618542e-05
17    5.10724702e-05
18    -1.83922659e-15
19    0.000881867462
20    -5.2382647e-05
21    0.000731141154
22    1.48173669e-14
23    6.02716993e-05
24    -0.000382458158
25    0.000274756502
26    5.73309419e-14
27    9.65681627e-07
28    1.55050713e-16
29    -5.50176888e-06
30    -5.92039849e-16
31    2.98656895e-06
32    7.39186772e-06
33    -2.85515683e-05
34    -0.000172904052
35    -0.000255755485
36    -2.78557145e-06
37    1.0480849e-06
38    -1.69127344e-17
39    3.2216145e-06
40    3.46670258e-06
41    3.59333618e-05
42    0.000626403185
43    -1.01995196e-06
44    2.40656563e-06
45    -7.7543939e-16
46    0.000239316247
47    5.90311609e-05
48    0.000320364696
49    0.0002882487
50    -3.40850991e-06
51    -9.79526264e-05
52    1.483744e-15
53    2.22403022e-08
54    1.81479334e-07
55    7.73076735e-07
56    2.79479725e-06
57    1.00324256e-06
58    -5.07688618e-05
59    -4.02846328e-07
60    4.8078637e-05
61    2.25451414e-05
62    1.05872656e-15
63    0.000283285943
64    0.000293894462
65    0.000119274608
66    -6.81179321e-16
67    -0.000237298368
68    -0.000107055323
69    -0.000153789419
70    5.15522392e-15
71    -0.000961414244
72    -0.000522159026
73    0.000226483941
74    3.26690957e-14
75    -0.000993323212
76    -4.92242918e-05
77    0.000362494376
78    -7.64272873e-15
79    0.000131614624
80    3.26354432e-16
81    -1.16462871e-05
82    5.21143381e-16
83    0.000144282937
84    3.23011724e-08
85    2.63501671e-07
86    1.16662298e-06
87    4.45088412e-06
88    6.46034153e-06
89    -1.05768642e-05
90    2.61628732e-05
91    -1.70373658e-05
92    -3.79629322e-06
93    5.4617996e-16
94    1.96384277e-05
95    3.75928889e-05
96    -8.74029025e-06
97    -2.32561271e-16
98    7.0418553e-05
99    8.94600703e-06
100    1.50095572e-05
101    3.63021876e-15
102    -0.000117023988
103    2.07598977e-05
104    1.08600812e-06
105    -1.02463553e-14
106    -0.000609208284
107    -4.30097635e-05
108    6.28399675e-05
109    9.18453111e-15
110    5.85603104e-07
111    -1.83036075e-16
112    -4.46397965e-06
113    2.81810877e-16
114    2.36612239e-05
115    1.99419767e-08
116    1.7160893e-07
117    6.73083537e-07
118    2.75667878e-06
119    7.81791395e-07
120    -3.4967367e-05
121    -6.23451603e-07
122    -4.52396319e-05
123    2.68947367e-05
124    1.71720097e-15
125    0.000237427372
126    -0.000240564421
127    0.000121156569
128    3.96380992e-15
129    -0.000233032501
130    7.14877546e-05
131    -8.35757669e-05
132    4.17642353e-15
133    -0.00161179156
134    0.000724336967
135    0.000362443687
136    2.49998214e-14
137    0.000187934211
138    0.000312971931
139    -3.37246672e-05
140    5.02613626e-14
141    -0.000116906811
142    1.01785376e-15
143    2.2773212e-06
144    1.35037209e-16
145    0.0001176906
146    1.72883755e-08
147    1.49758329e-07
148    6.05550961e-07
149    2.55404035e-06
150    1.64996652e-06
151    -1.32171493e-05
152    1.96328122e-05
153    1.7097784e-05
154    -3.31503665e-06
155    1.90669479e-15
156    2.00434199e-05
157    -3.72170779e-05
158    -1.24832128e-05
159    3.48959809e-15
160    5.78074806e-05
161    7.08659549e-06
162    3.91084092e-06
163    3.66408937e-15
164    -0.000115600355
165    -4.03880035e-05
166    -3.74715111e-06
167    1.80051125e-15
168    -0.000662146259
169    5.81646245e-05
170    2.19633969e-05
171    -2.86801201e-15
172    2.53164915e-06
173    -1.60008906e-16
174    -5.49552582e-06
175    -7.2007037e-16
176    1.8972433e-05
177    0.00109720422
178    0.00835411678
179    0.0409331519
180    0.138942145
181    0.335935667
182    0.144066884
183    0.467475454
184    -0.000136760784
185    -0.000239470183
186    1.83015262e-15
187    0.00426590382
188    8.54719736e-05
189    9.96115178e-05
190    1.19756179e-15
191    -0.000256161279
192    -6.44422294e-05
193    -8.27510765e-05
194    5.27763841e-15
195    0.00221212694
196    -1.57550915e-05
197    -0.000888198722
198    -1.6903227e-14
199    0.00188777686
200    0.000152337799
201    -0.000465369714
202    -2.72448761e-14
203    -1.07103046e-05
204    -3.98942426e-17
205    -4.88959746e-06
206    -1.99077601e-16
207    -1.38360643e-05
208    1.88213962e-06
209    1.43784907e-05
210    7.01088463e-05
211    0.000239309256
212    0.000567049754
213    0.000207633086
214    0.000829167931
215    -3.57963726e-06
216    -2.11359146e-05
217    -1.07417416e-15
218    7.34127462e-05
219    4.89562907e-06
220    6.92894279e-05
221    1.38044978e-16
222    -7.53296063e-05
223    -8.34459804e-05
224    -0.000106741864
225    -2.71208114e-15
226    -0.000449412988
227    -0.000331460878
228    -0.000194908436
229    -1.4893853e-14
230    -0.00051445026
231    -0.000383121322
232    0.000197042245
233    -3.29896999e-14
234    7.27340659e-06
235    1.03405203e-16
236    -5.72808422e-06
237    -4.07855542e-16
238    -2.52363369e-05
239    -9.49719391e-10
240    3.59348533e-08
241    -1.31640377e-07
242    7.80588744e-07
243    -8.75163555e-06
244    -4.01881001e-05
245    2.50537346e-05
246    1.38780705e-06
247    -1.90138409e-05
248    -1.05478424e-15
249    7.69321207e-05
250    2.2675273e-06
251    8.35640684e-05
252    3.11622056e-16
253    -0.000224624981
254    0.000144961712
255    -0.000108000375
256    -3.65336525e-15
257    0.000333109367
258    5.5044272e-05
259    -6.69490957e-05
260    -1.09619098e-14
261    0.000394234357
262    -0.000267092691
263    -0.000486642549
264    -6.9076565e-14
265    -7.58102827e-06
266    3.14642495e-16
267    -1.29165874e-06
268    5.14256729e-16
269    -3.98773624e-05
270    7.36354325e-06
271    -7.14889104e-06
272    -0.000102253417
273    -0.000101022475
274    -2.9625894e-06
275    6.44528159e-06
276    -2.60771974e-16
[5D]