[Molden Format]
[Atoms] (Angs)
  C      1    6     -0.00714236     -1.70213747     -0.00000000
  H      2    1     -2.06882847     -1.44022412      0.00000000
  H      3    1     -0.12337987     -2.77567521      0.00000000
  H      4    1      0.04651892      1.98813947     -0.00000000
  C      5    6     -1.21953563      0.40211669      0.00000000
  O      6    8     -2.25921553      1.03043814      0.00000000
  C      7    6      1.28797806      0.34644937     -0.00000000
  O      8    8      2.31273661      1.00537216     -0.00000000
  N      9    7      0.03446295      0.97739857     -0.00000000
  N     10    7     -1.17287765     -0.98229824      0.00000000
  C     11    6      1.20107039     -1.10433419     -0.00000000
  H     12    1      2.11220096     -1.67699125     -0.00000000
[GTO]
1    0
S    1    1.000000
   4.56324000E+03    1.96665000E-03 
S    1    1.000000
   6.82024000E+02    1.52306000E-02 
S    1    1.000000
   1.54973000E+02    7.61269000E-02 
S    1    1.000000
   4.44553000E+01    2.60801000E-01 
S    1    1.000000
   1.30290000E+01    6.16462000E-01 
S    1    1.000000
   1.82773000E+00    2.21006000E-01 
SP   3    1.000000
   2.09642000E+01    1.14660000E-01   4.02487000E-02 
   4.80331000E+00    9.19999000E-01   2.37594000E-01 
   1.45933000E+00   -3.03068000E-03   8.15854000E-01 
SP   1    1.000000
   4.83456000E-01    1.00000000E+00   1.00000000E+00 
SP   1    1.000000
   1.45585000E-01    1.00000000E+00   1.00000000E+00 
SP   1    1.000000
   4.38000000E-02    1.00000000E+00   1.00000000E+00 
SP   1    1.000000
   1.31927711E-02    1.00000000E+00   1.00000000E+00 
D    1    1.000000
   6.26000000E-01    1.00000000E+00 

2    0
S    3    1.000000
   3.38650000E+01    2.54938000E-02 
   5.09479000E+00    1.90373000E-01 
   1.15879000E+00    8.52161000E-01 
S    1    1.000000
   3.25840000E-01    1.00000000E+00 
S    1    1.000000
   1.02741000E-01    1.00000000E+00 
S    1    1.000000
   3.60000000E-02    1.00000000E+00 
P    1    1.000000
   7.50000000E-01    1.00000000E+00 

3    0
S    3    1.000000
   3.38650000E+01    2.54938000E-02 
   5.09479000E+00    1.90373000E-01 
   1.15879000E+00    8.52161000E-01 
S    1    1.000000
   3.25840000E-01    1.00000000E+00 
S    1    1.000000
   1.02741000E-01    1.00000000E+00 
S    1    1.000000
   3.60000000E-02    1.00000000E+00 
P    1    1.000000
   7.50000000E-01    1.00000000E+00 

4    0
S    3    1.000000
   3.38650000E+01    2.54938000E-02 
   5.09479000E+00    1.90373000E-01 
   1.15879000E+00    8.52161000E-01 
S    1    1.000000
   3.25840000E-01    1.00000000E+00 
S    1    1.000000
   1.02741000E-01    1.00000000E+00 
S    1    1.000000
   3.60000000E-02    1.00000000E+00 
P    1    1.000000
   7.50000000E-01    1.00000000E+00 

5    0
S    1    1.000000
   4.56324000E+03    1.96665000E-03 
S    1    1.000000
   6.82024000E+02    1.52306000E-02 
S    1    1.000000
   1.54973000E+02    7.61269000E-02 
S    1    1.000000
   4.44553000E+01    2.60801000E-01 
S    1    1.000000
   1.30290000E+01    6.16462000E-01 
S    1    1.000000
   1.82773000E+00    2.21006000E-01 
SP   3    1.000000
   2.09642000E+01    1.14660000E-01   4.02487000E-02 
   4.80331000E+00    9.19999000E-01   2.37594000E-01 
   1.45933000E+00   -3.03068000E-03   8.15854000E-01 
SP   1    1.000000
   4.83456000E-01    1.00000000E+00   1.00000000E+00 
SP   1    1.000000
   1.45585000E-01    1.00000000E+00   1.00000000E+00 
SP   1    1.000000
   4.38000000E-02    1.00000000E+00   1.00000000E+00 
SP   1    1.000000
   1.31927711E-02    1.00000000E+00   1.00000000E+00 
D    1    1.000000
   6.26000000E-01    1.00000000E+00 

6    0
S    1    1.000000
   8.58850000E+03    1.89515000E-03 
S    1    1.000000
   1.29723000E+03    1.43859000E-02 
S    1    1.000000
   2.99296000E+02    7.07320000E-02 
S    1    1.000000
   8.73771000E+01    2.40001000E-01 
S    1    1.000000
   2.56789000E+01    5.94797000E-01 
S    1    1.000000
   3.74004000E+00    2.80802000E-01 
SP   3    1.000000
   4.21175000E+01    1.13889000E-01   3.65114000E-02 
   9.62837000E+00    9.20811000E-01   2.37153000E-01 
   2.85332000E+00   -3.27447000E-03   8.19702000E-01 
SP   1    1.000000
   9.05661000E-01    1.00000000E+00   1.00000000E+00 
SP   1    1.000000
   2.55611000E-01    1.00000000E+00   1.00000000E+00 
SP   1    1.000000
   8.45000000E-02    1.00000000E+00   1.00000000E+00 
SP   1    1.000000
   2.54518072E-02    1.00000000E+00   1.00000000E+00 
D    1    1.000000
   1.29200000E+00    1.00000000E+00 

7    0
S    1    1.000000
   4.56324000E+03    1.96665000E-03 
S    1    1.000000
   6.82024000E+02    1.52306000E-02 
S    1    1.000000
   1.54973000E+02    7.61269000E-02 
S    1    1.000000
   4.44553000E+01    2.60801000E-01 
S    1    1.000000
   1.30290000E+01    6.16462000E-01 
S    1    1.000000
   1.82773000E+00    2.21006000E-01 
SP   3    1.000000
   2.09642000E+01    1.14660000E-01   4.02487000E-02 
   4.80331000E+00    9.19999000E-01   2.37594000E-01 
   1.45933000E+00   -3.03068000E-03   8.15854000E-01 
SP   1    1.000000
   4.83456000E-01    1.00000000E+00   1.00000000E+00 
SP   1    1.000000
   1.45585000E-01    1.00000000E+00   1.00000000E+00 
SP   1    1.000000
   4.38000000E-02    1.00000000E+00   1.00000000E+00 
SP   1    1.000000
   1.31927711E-02    1.00000000E+00   1.00000000E+00 
D    1    1.000000
   6.26000000E-01    1.00000000E+00 

8    0
S    1    1.000000
   8.58850000E+03    1.89515000E-03 
S    1    1.000000
   1.29723000E+03    1.43859000E-02 
S    1    1.000000
   2.99296000E+02    7.07320000E-02 
S    1    1.000000
   8.73771000E+01    2.40001000E-01 
S    1    1.000000
   2.56789000E+01    5.94797000E-01 
S    1    1.000000
   3.74004000E+00    2.80802000E-01 
SP   3    1.000000
   4.21175000E+01    1.13889000E-01   3.65114000E-02 
   9.62837000E+00    9.20811000E-01   2.37153000E-01 
   2.85332000E+00   -3.27447000E-03   8.19702000E-01 
SP   1    1.000000
   9.05661000E-01    1.00000000E+00   1.00000000E+00 
SP   1    1.000000
   2.55611000E-01    1.00000000E+00   1.00000000E+00 
SP   1    1.000000
   8.45000000E-02    1.00000000E+00   1.00000000E+00 
SP   1    1.000000
   2.54518072E-02    1.00000000E+00   1.00000000E+00 
D    1    1.000000
   1.29200000E+00    1.00000000E+00 

9    0
S    1    1.000000
   6.29348000E+03    1.96979000E-03 
S    1    1.000000
   9.49044000E+02    1.49613000E-02 
S    1    1.000000
   2.18776000E+02    7.35006000E-02 
S    1    1.000000
   6.36916000E+01    2.48937000E-01 
S    1    1.000000
   1.88282000E+01    6.02460000E-01 
S    1    1.000000
   2.72023000E+00    2.56202000E-01 
SP   3    1.000000
   3.06331000E+01    1.11906000E-01   3.83119000E-02 
   7.02614000E+00    9.21666000E-01   2.37403000E-01 
   2.11205000E+00   -2.56919000E-03   8.17592000E-01 
SP   1    1.000000
   6.84009000E-01    1.00000000E+00   1.00000000E+00 
SP   1    1.000000
   2.00878000E-01    1.00000000E+00   1.00000000E+00 
SP   1    1.000000
   6.39000000E-02    1.00000000E+00   1.00000000E+00 
SP   1    1.000000
   1.92469880E-02    1.00000000E+00   1.00000000E+00 
D    1    1.000000
   9.13000000E-01    1.00000000E+00 

10    0
S    1    1.000000
   6.29348000E+03    1.96979000E-03 
S    1    1.000000
   9.49044000E+02    1.49613000E-02 
S    1    1.000000
   2.18776000E+02    7.35006000E-02 
S    1    1.000000
   6.36916000E+01    2.48937000E-01 
S    1    1.000000
   1.88282000E+01    6.02460000E-01 
S    1    1.000000
   2.72023000E+00    2.56202000E-01 
SP   3    1.000000
   3.06331000E+01    1.11906000E-01   3.83119000E-02 
   7.02614000E+00    9.21666000E-01   2.37403000E-01 
   2.11205000E+00   -2.56919000E-03   8.17592000E-01 
SP   1    1.000000
   6.84009000E-01    1.00000000E+00   1.00000000E+00 
SP   1    1.000000
   2.00878000E-01    1.00000000E+00   1.00000000E+00 
SP   1    1.000000
   6.39000000E-02    1.00000000E+00   1.00000000E+00 
SP   1    1.000000
   1.92469880E-02    1.00000000E+00   1.00000000E+00 
D    1    1.000000
   9.13000000E-01    1.00000000E+00 

11    0
S    1    1.000000
   4.56324000E+03    1.96665000E-03 
S    1    1.000000
   6.82024000E+02    1.52306000E-02 
S    1    1.000000
   1.54973000E+02    7.61269000E-02 
S    1    1.000000
   4.44553000E+01    2.60801000E-01 
S    1    1.000000
   1.30290000E+01    6.16462000E-01 
S    1    1.000000
   1.82773000E+00    2.21006000E-01 
SP   3    1.000000
   2.09642000E+01    1.14660000E-01   4.02487000E-02 
   4.80331000E+00    9.19999000E-01   2.37594000E-01 
   1.45933000E+00   -3.03068000E-03   8.15854000E-01 
SP   1    1.000000
   4.83456000E-01    1.00000000E+00   1.00000000E+00 
SP   1    1.000000
   1.45585000E-01    1.00000000E+00   1.00000000E+00 
SP   1    1.000000
   4.38000000E-02    1.00000000E+00   1.00000000E+00 
SP   1    1.000000
   1.31927711E-02    1.00000000E+00   1.00000000E+00 
D    1    1.000000
   6.26000000E-01    1.00000000E+00 

12    0
S    3    1.000000
   3.38650000E+01    2.54938000E-02 
   5.09479000E+00    1.90373000E-01 
   1.15879000E+00    8.52161000E-01 
S    1    1.000000
   3.25840000E-01    1.00000000E+00 
S    1    1.000000
   1.02741000E-01    1.00000000E+00 
S    1    1.000000
   3.60000000E-02    1.00000000E+00 
P    1    1.000000
   7.50000000E-01    1.00000000E+00 

[MO]
Sym=X
Ene=0.021057
Spin=Alpha
Occup=1
1    -1.24490864e-09
2    1.34338628e-08
3    -9.97656436e-08
4    3.15160948e-07
5    -4.88562252e-06
6    -2.20384824e-05
7    1.25333947e-05
8    -8.50304307e-07
9    -8.12789517e-06
10    -1.66290088e-15
11    3.95565109e-05
12    1.22348268e-05
13    3.7843512e-05
14    -1.27147334e-15
15    0.000153153645
16    3.82316201e-05
17    5.09074331e-05
18    -1.84013643e-15
19    0.000883961393
20    -5.25039083e-05
21    0.000732554101
22    1.4801815e-14
23    6.01543641e-05
24    -0.000382745176
25    0.000275205265
26    5.72248043e-14
27    1.21890412e-06
28    1.55007033e-16
29    -5.44243281e-06
30    -5.91288177e-16
31    2.89855437e-06
32    7.16187891e-06
33    -2.87434243e-05
34    -0.000173128909
35    -0.000255989654
36    -2.89736593e-06
37    9.93262171e-07
38    -1.83603338e-17
39    3.21184118e-06
40    3.33373832e-06
41    3.60686734e-05
42    0.000627474504
43    -1.00991004e-06
44    2.34820639e-06
45    -7.75904336e-16
46    0.000239310978
47    5.90514731e-05
48    0.000320648102
49    0.000288768401
50    -3.4094854e-06
51    -9.79520298e-05
52    1.48444082e-15
53    2.22226109e-08
54    1.81276187e-07
55    7.72609731e-07
56    2.79148016e-06
57    1.01606167e-06
58    -5.06517788e-05
59    -4.35698652e-07
60    4.80821591e-05
61    2.25769049e-05
62    1.05722224e-15
63    0.000282921533
64    0.000293883186
65    0.000119747512
66    -6.80595814e-16
67    -0.000237383535
68    -0.000107251158
69    -0.000153614964
70    5.14906057e-15
71    -0.000960766686
72    -0.00052211107
73    0.000226326219
74    3.26400203e-14
75    -0.000992611907
76    -4.88964561e-05
77    0.000362716477
78    -7.59968793e-15
79    0.00013167035
80    3.2717313e-16
81    -1.15780909e-05
82    5.2144568e-16
83    0.000144534228
84    3.90022392e-09
85    4.7440476e-08
86    1.07299835e-07
87    8.45410304e-07
88    -2.45999016e-06
89    -1.48036292e-05
90    1.33338509e-05
91    -1.70802104e-05
92    -3.78632748e-06
93    5.45361487e-16
94    1.94875486e-05
95    3.759528e-05
96    -8.72523664e-06
97    -2.31562153e-16
98    7.03170502e-05
99    8.89501054e-06
100    1.50190059e-05
101    3.62360443e-15
102    -0.000117167161
103    2.0745839e-05
104    1.08814349e-06
105    -1.02326521e-14
106    -0.000609023495
107    -4.29913805e-05
108    6.29050292e-05
109    9.15737027e-15
110    6.03710232e-07
111    -1.82883602e-16
112    -4.46213769e-06
113    2.81773381e-16
114    2.36746153e-05
115    1.99424366e-08
116    1.71603148e-07
117    6.73122012e-07
118    2.75655958e-06
119    7.84130252e-07
120    -3.49541257e-05
121    -6.2985554e-07
122    -4.52456787e-05
123    2.68880597e-05
124    1.71861221e-15
125    0.000237414879
126    -0.000240546032
127    0.000121183464
128    3.96643143e-15
129    -0.000233544656
130    7.15405475e-05
131    -8.35717772e-05
132    4.17839148e-15
133    -0.00161317268
134    0.000724959505
135    0.000362791788
136    2.49868154e-14
137    0.000188053848
138    0.000313536091
139    -3.38813939e-05
140    5.01648246e-14
141    -0.000116907928
142    1.01845673e-15
143    2.28872522e-06
144    1.3561187e-16
145    0.000117695616
146    4.07965585e-09
147    4.92707156e-08
148    1.12887364e-07
149    8.77175102e-07
150    -2.49834921e-06
151    -1.51827836e-05
152    1.36665591e-05
153    1.71170223e-05
154    -3.30313727e-06
155    1.90789527e-15
156    1.99616867e-05
157    -3.72210409e-05
158    -1.24847609e-05
159    3.49144373e-15
160    5.78658626e-05
161    7.06426035e-06
162    3.89763487e-06
163    3.66740533e-15
164    -0.000115487418
165    -4.04757016e-05
166    -3.79132994e-06
167    1.80648577e-15
168    -0.000662602753
169    5.81875672e-05
170    2.18852436e-05
171    -2.86300872e-15
172    2.53233314e-06
173    -1.60192758e-16
174    -5.49717871e-06
175    -7.20622765e-16
176    1.8972916e-05
177    0.00109720558
178    0.00835412714
179    0.0409332029
180    0.138942317
181    0.335936093
182    0.144067097
183    0.467476012
184    -0.000136775795
185    -0.000239482283
186    1.83081267e-15
187    0.00426585559
188    8.55207945e-05
189    9.96455317e-05
190    1.19869122e-15
191    -0.000256054253
192    -6.43933357e-05
193    -8.29205113e-05
194    5.27845812e-15
195    0.00221295449
196    -1.57779713e-05
197    -0.000888933462
198    -1.68879922e-14
199    0.00188872433
200    0.000152808181
201    -0.000465760187
202    -2.72143023e-14
203    -1.07329978e-05
204    -3.97683573e-17
205    -4.88246691e-06
206    -1.9854693e-16
207    -1.38525361e-05
208    7.34000281e-07
209    5.63660221e-06
210    2.72758408e-05
211    9.3919848e-05
212    0.000215509725
213    5.6330752e-05
214    0.000340268189
215    -4.02242311e-06
216    -2.14276871e-05
217    -1.07627072e-15
218    6.83577871e-05
219    5.20385198e-06
220    6.94298393e-05
221    1.3698202e-16
222    -7.39861416e-05
223    -8.34544206e-05
224    -0.000106702565
225    -2.71924763e-15
226    -0.0004521097
227    -0.000332245582
228    -0.00019532618
229    -1.48770024e-14
230    -0.000516312711
231    -0.000383673377
232    0.000197017379
233    -3.29591534e-14
234    7.18943314e-06
235    1.03295366e-16
236    -6.06948846e-06
237    -4.07752803e-16
238    -2.52831925e-05
239    -9.48756901e-10
240    3.59080752e-08
241    -1.31529528e-07
242    7.80021655e-07
243    -8.74403489e-06
244    -4.01466034e-05
245    2.50313868e-05
246    1.37457804e-06
247    -1.9018645e-05
248    -1.05380812e-15
249    7.68229963e-05
250    2.36224189e-06
251    8.3606533e-05
252    3.09824758e-16
253    -0.000224308892
254    0.000144753882
255    -0.000107844093
256    -3.64808134e-15
257    0.000332498524
258    5.51527985e-05
259    -6.71891299e-05
260    -1.09585307e-14
261    0.000393917394
262    -0.000267575609
263    -0.000487424465
264    -6.89423621e-14
265    -7.60572145e-06
266    3.15653781e-16
267    -1.28720143e-06
268    5.14904134e-16
269    -3.9929535e-05
270    7.35478458e-06
271    -7.12204025e-06
272    -0.000102167961
273    -0.0001010855
274    -2.95461215e-06
275    6.44863719e-06
276    -2.60667764e-16
[5D]