[Molden Format]
[Atoms] (Angs)
  C      1    6     -0.00714236     -1.70213747     -0.00000000
  H      2    1     -2.06882847     -1.44022412      0.00000000
  H      3    1     -0.12337987     -2.77567521      0.00000000
  H      4    1      0.04651892      1.98813947     -0.00000000
  C      5    6     -1.21953563      0.40211669      0.00000000
  O      6    8     -2.25921553      1.03043814      0.00000000
  C      7    6      1.28797806      0.34644937     -0.00000000
  O      8    8      2.31273661      1.00537216     -0.00000000
  N      9    7      0.03446295      0.97739857     -0.00000000
  N     10    7     -1.17287765     -0.98229824      0.00000000
  C     11    6      1.20107039     -1.10433419     -0.00000000
  H     12    1      2.11220096     -1.67699125     -0.00000000
[GTO]
1    0
S    1    1.000000
   4.56324000E+03    1.96665000E-03 
S    1    1.000000
   6.82024000E+02    1.52306000E-02 
S    1    1.000000
   1.54973000E+02    7.61269000E-02 
S    1    1.000000
   4.44553000E+01    2.60801000E-01 
S    1    1.000000
   1.30290000E+01    6.16462000E-01 
S    1    1.000000
   1.82773000E+00    2.21006000E-01 
SP   3    1.000000
   2.09642000E+01    1.14660000E-01   4.02487000E-02 
   4.80331000E+00    9.19999000E-01   2.37594000E-01 
   1.45933000E+00   -3.03068000E-03   8.15854000E-01 
SP   1    1.000000
   4.83456000E-01    1.00000000E+00   1.00000000E+00 
SP   1    1.000000
   1.45585000E-01    1.00000000E+00   1.00000000E+00 
SP   1    1.000000
   4.38000000E-02    1.00000000E+00   1.00000000E+00 
SP   1    1.000000
   1.31927711E-02    1.00000000E+00   1.00000000E+00 
D    1    1.000000
   6.26000000E-01    1.00000000E+00 

2    0
S    3    1.000000
   3.38650000E+01    2.54938000E-02 
   5.09479000E+00    1.90373000E-01 
   1.15879000E+00    8.52161000E-01 
S    1    1.000000
   3.25840000E-01    1.00000000E+00 
S    1    1.000000
   1.02741000E-01    1.00000000E+00 
S    1    1.000000
   3.60000000E-02    1.00000000E+00 
P    1    1.000000
   7.50000000E-01    1.00000000E+00 

3    0
S    3    1.000000
   3.38650000E+01    2.54938000E-02 
   5.09479000E+00    1.90373000E-01 
   1.15879000E+00    8.52161000E-01 
S    1    1.000000
   3.25840000E-01    1.00000000E+00 
S    1    1.000000
   1.02741000E-01    1.00000000E+00 
S    1    1.000000
   3.60000000E-02    1.00000000E+00 
P    1    1.000000
   7.50000000E-01    1.00000000E+00 

4    0
S    3    1.000000
   3.38650000E+01    2.54938000E-02 
   5.09479000E+00    1.90373000E-01 
   1.15879000E+00    8.52161000E-01 
S    1    1.000000
   3.25840000E-01    1.00000000E+00 
S    1    1.000000
   1.02741000E-01    1.00000000E+00 
S    1    1.000000
   3.60000000E-02    1.00000000E+00 
P    1    1.000000
   7.50000000E-01    1.00000000E+00 

5    0
S    1    1.000000
   4.56324000E+03    1.96665000E-03 
S    1    1.000000
   6.82024000E+02    1.52306000E-02 
S    1    1.000000
   1.54973000E+02    7.61269000E-02 
S    1    1.000000
   4.44553000E+01    2.60801000E-01 
S    1    1.000000
   1.30290000E+01    6.16462000E-01 
S    1    1.000000
   1.82773000E+00    2.21006000E-01 
SP   3    1.000000
   2.09642000E+01    1.14660000E-01   4.02487000E-02 
   4.80331000E+00    9.19999000E-01   2.37594000E-01 
   1.45933000E+00   -3.03068000E-03   8.15854000E-01 
SP   1    1.000000
   4.83456000E-01    1.00000000E+00   1.00000000E+00 
SP   1    1.000000
   1.45585000E-01    1.00000000E+00   1.00000000E+00 
SP   1    1.000000
   4.38000000E-02    1.00000000E+00   1.00000000E+00 
SP   1    1.000000
   1.31927711E-02    1.00000000E+00   1.00000000E+00 
D    1    1.000000
   6.26000000E-01    1.00000000E+00 

6    0
S    1    1.000000
   8.58850000E+03    1.89515000E-03 
S    1    1.000000
   1.29723000E+03    1.43859000E-02 
S    1    1.000000
   2.99296000E+02    7.07320000E-02 
S    1    1.000000
   8.73771000E+01    2.40001000E-01 
S    1    1.000000
   2.56789000E+01    5.94797000E-01 
S    1    1.000000
   3.74004000E+00    2.80802000E-01 
SP   3    1.000000
   4.21175000E+01    1.13889000E-01   3.65114000E-02 
   9.62837000E+00    9.20811000E-01   2.37153000E-01 
   2.85332000E+00   -3.27447000E-03   8.19702000E-01 
SP   1    1.000000
   9.05661000E-01    1.00000000E+00   1.00000000E+00 
SP   1    1.000000
   2.55611000E-01    1.00000000E+00   1.00000000E+00 
SP   1    1.000000
   8.45000000E-02    1.00000000E+00   1.00000000E+00 
SP   1    1.000000
   2.54518072E-02    1.00000000E+00   1.00000000E+00 
D    1    1.000000
   1.29200000E+00    1.00000000E+00 

7    0
S    1    1.000000
   4.56324000E+03    1.96665000E-03 
S    1    1.000000
   6.82024000E+02    1.52306000E-02 
S    1    1.000000
   1.54973000E+02    7.61269000E-02 
S    1    1.000000
   4.44553000E+01    2.60801000E-01 
S    1    1.000000
   1.30290000E+01    6.16462000E-01 
S    1    1.000000
   1.82773000E+00    2.21006000E-01 
SP   3    1.000000
   2.09642000E+01    1.14660000E-01   4.02487000E-02 
   4.80331000E+00    9.19999000E-01   2.37594000E-01 
   1.45933000E+00   -3.03068000E-03   8.15854000E-01 
SP   1    1.000000
   4.83456000E-01    1.00000000E+00   1.00000000E+00 
SP   1    1.000000
   1.45585000E-01    1.00000000E+00   1.00000000E+00 
SP   1    1.000000
   4.38000000E-02    1.00000000E+00   1.00000000E+00 
SP   1    1.000000
   1.31927711E-02    1.00000000E+00   1.00000000E+00 
D    1    1.000000
   6.26000000E-01    1.00000000E+00 

8    0
S    1    1.000000
   8.58850000E+03    1.89515000E-03 
S    1    1.000000
   1.29723000E+03    1.43859000E-02 
S    1    1.000000
   2.99296000E+02    7.07320000E-02 
S    1    1.000000
   8.73771000E+01    2.40001000E-01 
S    1    1.000000
   2.56789000E+01    5.94797000E-01 
S    1    1.000000
   3.74004000E+00    2.80802000E-01 
SP   3    1.000000
   4.21175000E+01    1.13889000E-01   3.65114000E-02 
   9.62837000E+00    9.20811000E-01   2.37153000E-01 
   2.85332000E+00   -3.27447000E-03   8.19702000E-01 
SP   1    1.000000
   9.05661000E-01    1.00000000E+00   1.00000000E+00 
SP   1    1.000000
   2.55611000E-01    1.00000000E+00   1.00000000E+00 
SP   1    1.000000
   8.45000000E-02    1.00000000E+00   1.00000000E+00 
SP   1    1.000000
   2.54518072E-02    1.00000000E+00   1.00000000E+00 
D    1    1.000000
   1.29200000E+00    1.00000000E+00 

9    0
S    1    1.000000
   6.29348000E+03    1.96979000E-03 
S    1    1.000000
   9.49044000E+02    1.49613000E-02 
S    1    1.000000
   2.18776000E+02    7.35006000E-02 
S    1    1.000000
   6.36916000E+01    2.48937000E-01 
S    1    1.000000
   1.88282000E+01    6.02460000E-01 
S    1    1.000000
   2.72023000E+00    2.56202000E-01 
SP   3    1.000000
   3.06331000E+01    1.11906000E-01   3.83119000E-02 
   7.02614000E+00    9.21666000E-01   2.37403000E-01 
   2.11205000E+00   -2.56919000E-03   8.17592000E-01 
SP   1    1.000000
   6.84009000E-01    1.00000000E+00   1.00000000E+00 
SP   1    1.000000
   2.00878000E-01    1.00000000E+00   1.00000000E+00 
SP   1    1.000000
   6.39000000E-02    1.00000000E+00   1.00000000E+00 
SP   1    1.000000
   1.92469880E-02    1.00000000E+00   1.00000000E+00 
D    1    1.000000
   9.13000000E-01    1.00000000E+00 

10    0
S    1    1.000000
   6.29348000E+03    1.96979000E-03 
S    1    1.000000
   9.49044000E+02    1.49613000E-02 
S    1    1.000000
   2.18776000E+02    7.35006000E-02 
S    1    1.000000
   6.36916000E+01    2.48937000E-01 
S    1    1.000000
   1.88282000E+01    6.02460000E-01 
S    1    1.000000
   2.72023000E+00    2.56202000E-01 
SP   3    1.000000
   3.06331000E+01    1.11906000E-01   3.83119000E-02 
   7.02614000E+00    9.21666000E-01   2.37403000E-01 
   2.11205000E+00   -2.56919000E-03   8.17592000E-01 
SP   1    1.000000
   6.84009000E-01    1.00000000E+00   1.00000000E+00 
SP   1    1.000000
   2.00878000E-01    1.00000000E+00   1.00000000E+00 
SP   1    1.000000
   6.39000000E-02    1.00000000E+00   1.00000000E+00 
SP   1    1.000000
   1.92469880E-02    1.00000000E+00   1.00000000E+00 
D    1    1.000000
   9.13000000E-01    1.00000000E+00 

11    0
S    1    1.000000
   4.56324000E+03    1.96665000E-03 
S    1    1.000000
   6.82024000E+02    1.52306000E-02 
S    1    1.000000
   1.54973000E+02    7.61269000E-02 
S    1    1.000000
   4.44553000E+01    2.60801000E-01 
S    1    1.000000
   1.30290000E+01    6.16462000E-01 
S    1    1.000000
   1.82773000E+00    2.21006000E-01 
SP   3    1.000000
   2.09642000E+01    1.14660000E-01   4.02487000E-02 
   4.80331000E+00    9.19999000E-01   2.37594000E-01 
   1.45933000E+00   -3.03068000E-03   8.15854000E-01 
SP   1    1.000000
   4.83456000E-01    1.00000000E+00   1.00000000E+00 
SP   1    1.000000
   1.45585000E-01    1.00000000E+00   1.00000000E+00 
SP   1    1.000000
   4.38000000E-02    1.00000000E+00   1.00000000E+00 
SP   1    1.000000
   1.31927711E-02    1.00000000E+00   1.00000000E+00 
D    1    1.000000
   6.26000000E-01    1.00000000E+00 

12    0
S    3    1.000000
   3.38650000E+01    2.54938000E-02 
   5.09479000E+00    1.90373000E-01 
   1.15879000E+00    8.52161000E-01 
S    1    1.000000
   3.25840000E-01    1.00000000E+00 
S    1    1.000000
   1.02741000E-01    1.00000000E+00 
S    1    1.000000
   3.60000000E-02    1.00000000E+00 
P    1    1.000000
   7.50000000E-01    1.00000000E+00 

[MO]
Sym=X
Ene=0.959508
Spin=Alpha
Occup=1
1    -2.46427594e-08
2    -2.37961068e-07
3    -7.8442998e-07
4    -3.83804078e-06
5    7.41451338e-06
6    0.00010180761
7    -2.94490798e-05
8    2.76616475e-05
9    -1.82195561e-05
10    -4.58335465e-16
11    -0.000308948103
12    0.00042582756
13    -0.000266774373
14    -2.10547167e-15
15    -0.000114805308
16    -3.01147491e-05
17    -0.000163552017
18    -1.03986852e-15
19    0.00195408305
20    -0.000109300435
21    0.00131662106
22    -1.51967457e-14
23    -0.000111248354
24    -0.000277783321
25    0.000435514817
26    -9.79880519e-14
27    0.000241883199
28    -5.79675269e-17
29    5.67677382e-05
30    7.64253912e-16
31    -8.43081917e-05
32    -0.000219487895
33    -0.00018353355
34    -0.000214790436
35    -0.000218993061
36    -0.000106694369
37    -5.26569616e-05
38    -1.46674878e-15
39    -9.33010758e-06
40    -0.000127639198
41    0.000124787511
42    0.00100028699
43    9.61400921e-06
44    -5.58918542e-05
45    -4.68991459e-16
46    -4.95647269e-06
47    1.91279576e-05
48    0.000268923679
49    0.000500884614
50    -7.41291779e-07
51    7.0207241e-07
52    6.65352634e-16
53    -1.72087068e-08
54    -1.97556859e-07
55    -4.57193212e-07
56    -3.2545883e-06
57    1.19191123e-05
58    0.000107884498
59    -3.14077576e-05
60    2.49359971e-06
61    3.0815696e-05
62    -1.55245622e-15
63    -0.000334858032
64    -2.43384444e-05
65    0.000459650972
66    3.63500466e-16
67    -0.000103426813
68    -0.000178973901
69    0.000161558386
70    -6.1728751e-15
71    0.000545767024
72    0.000104897619
73    -0.000195367259
74    -2.82870189e-14
75    0.00070257702
76    0.000312877714
77    0.000213033877
78    3.92879961e-14
79    4.61211139e-05
80    7.89179013e-16
81    6.24434124e-05
82    3.2565702e-16
83    0.00024368501
84    -6.92156696e-09
85    -6.46980748e-08
86    -2.33259535e-07
87    -1.11595402e-06
88    3.75460969e-07
89    9.79047276e-06
90    -1.15626239e-05
91    2.42731387e-06
92    -1.64586525e-05
93    -8.44784081e-16
94    -1.00828106e-05
95    -1.81955551e-05
96    2.67240788e-05
97    8.32078767e-16
98    -0.000117932337
99    -3.99632501e-05
100    3.65236042e-06
101    -6.5101822e-15
102    -5.50910309e-05
103    -7.14874568e-06
104    -1.10695374e-06
105    1.28527643e-14
106    0.000352801172
107    5.09855285e-05
108    4.40285825e-05
109    -2.52602433e-14
110    2.0161097e-05
111    1.63743821e-16
112    3.45249269e-06
113    -5.38363442e-17
114    1.14399033e-05
115    2.76111312e-10
116    -7.13050782e-09
117    3.05053221e-08
118    -1.52441092e-07
119    2.05088764e-06
120    1.07467344e-05
121    -6.04872082e-06
122    -5.32687879e-06
123    -6.10807624e-06
124    1.40473239e-15
125    -5.84668759e-06
126    2.34766516e-05
127    2.94884108e-05
128    2.69781957e-15
129    -0.000496006033
130    5.32069212e-05
131    6.31424644e-06
132    1.91818231e-15
133    -0.00137139304
134    0.000583834432
135    0.000321705478
136    -1.24884135e-14
137    0.000106230336
138    0.000537688956
139    -0.000146820775
140    -8.92946478e-14
141    2.42657876e-06
142    5.8928108e-16
143    9.58998654e-06
144    5.95200661e-16
145    6.33208473e-06
146    5.70071524e-10
147    -2.73739198e-09
148    3.75333219e-08
149    -6.54530321e-08
150    1.6230656e-06
151    6.33303295e-06
152    -3.79998999e-06
153    -8.69982334e-07
154    -5.50653893e-07
155    1.22864417e-15
156    -1.42805057e-05
157    5.12145174e-06
158    4.13880886e-06
159    1.86811322e-15
160    4.28425903e-05
161    -2.35609811e-05
162    -1.42251987e-05
163    3.36582704e-15
164    0.000133680408
165    -8.47524675e-05
166    -4.22253019e-05
167    6.08967151e-15
168    -0.000417182726
169    1.6813295e-05
170    -7.75286731e-05
171    4.4670781e-15
172    -7.68790371e-07
173    -1.91781879e-16
174    -3.56487453e-07
175    -5.47573154e-16
176    -1.80689508e-07
177    2.92682522e-07
178    2.19296162e-06
179    1.0996631e-05
180    3.63457406e-05
181    9.66216584e-05
182    7.03697293e-05
183    0.000102829045
184    -1.39938445e-05
185    -1.1386555e-05
186    6.14029205e-16
187    -4.87629259e-05
188    4.58163532e-05
189    3.23832814e-05
190    1.07048076e-15
191    0.000104522757
192    4.64319588e-05
193    -0.000163338157
194    7.9977063e-16
195    0.000790841549
196    -2.41030993e-05
197    -0.000694839849
198    1.46471647e-14
199    0.000836123138
200    0.000476937084
201    -0.000373988616
202    2.95780029e-14
203    -2.17191818e-05
204    1.22496647e-16
205    6.65337621e-06
206    5.44588124e-16
207    -1.45662777e-05
208    -0.001096865
209    -0.00835148672
210    -0.0409201438
211    -0.138896497
212    -0.335840898
213    -0.144546112
214    -0.467065634
215    -0.000422787236
216    -0.000279073432
217    -2.08423195e-15
218    -0.00482812972
219    0.00029389405
220    0.000135277125
221    -1.20354355e-15
222    0.00128475549
223    -6.83164145e-06
224    3.79145414e-05
225    -7.12482356e-15
226    -0.00256340704
227    -0.00074765621
228    -0.000398925833
229    1.62839934e-14
230    -0.00183186032
231    -0.000513185244
232    -4.64030798e-05
233    2.84325232e-14
234    -8.07903368e-05
235    -1.26912301e-16
236    -0.000326238912
237    9.90742984e-17
238    -4.53813425e-05
239    9.4418546e-10
240    -2.54594532e-08
241    1.07047999e-07
242    -5.40131239e-07
243    7.27349045e-06
244    3.96068445e-05
245    -2.13303323e-05
246    -1.26929172e-05
247    -4.71830043e-06
248    9.62617778e-16
249    -0.000104353342
250    9.03691733e-05
251    4.1282772e-05
252    -1.66780732e-15
253    0.0003107676
254    -0.000203959581
255    0.000151387094
256    5.09611554e-15
257    -0.000552703676
258    0.000107731975
259    -0.000220475865
260    3.90339878e-15
261    -0.000299456998
262    -0.000460033368
263    -0.00075308394
264    1.24238875e-13
265    -2.29727452e-05
266    9.94645303e-16
267    4.30280621e-06
268    6.49923453e-16
269    -5.02647733e-05
270    -8.27144852e-06
271    2.68606294e-05
272    8.24191621e-05
273    -7.17770591e-05
274    7.34724692e-06
275    3.3123028e-06
276    1.19911966e-16
[5D]