[Molden Format]
[Atoms] (Angs)
  C      1    6     -0.00714236     -1.70213747     -0.00000000
  H      2    1     -2.06882847     -1.44022412      0.00000000
  H      3    1     -0.12337987     -2.77567521      0.00000000
  H      4    1      0.04651892      1.98813947     -0.00000000
  C      5    6     -1.21953563      0.40211669      0.00000000
  O      6    8     -2.25921553      1.03043814      0.00000000
  C      7    6      1.28797806      0.34644937     -0.00000000
  O      8    8      2.31273661      1.00537216     -0.00000000
  N      9    7      0.03446295      0.97739857     -0.00000000
  N     10    7     -1.17287765     -0.98229824      0.00000000
  C     11    6      1.20107039     -1.10433419     -0.00000000
  H     12    1      2.11220096     -1.67699125     -0.00000000
[GTO]
1    0
S    1    1.000000
   4.56324000E+03    1.96665000E-03 
S    1    1.000000
   6.82024000E+02    1.52306000E-02 
S    1    1.000000
   1.54973000E+02    7.61269000E-02 
S    1    1.000000
   4.44553000E+01    2.60801000E-01 
S    1    1.000000
   1.30290000E+01    6.16462000E-01 
S    1    1.000000
   1.82773000E+00    2.21006000E-01 
SP   3    1.000000
   2.09642000E+01    1.14660000E-01   4.02487000E-02 
   4.80331000E+00    9.19999000E-01   2.37594000E-01 
   1.45933000E+00   -3.03068000E-03   8.15854000E-01 
SP   1    1.000000
   4.83456000E-01    1.00000000E+00   1.00000000E+00 
SP   1    1.000000
   1.45585000E-01    1.00000000E+00   1.00000000E+00 
SP   1    1.000000
   4.38000000E-02    1.00000000E+00   1.00000000E+00 
SP   1    1.000000
   1.31927711E-02    1.00000000E+00   1.00000000E+00 
D    1    1.000000
   6.26000000E-01    1.00000000E+00 

2    0
S    3    1.000000
   3.38650000E+01    2.54938000E-02 
   5.09479000E+00    1.90373000E-01 
   1.15879000E+00    8.52161000E-01 
S    1    1.000000
   3.25840000E-01    1.00000000E+00 
S    1    1.000000
   1.02741000E-01    1.00000000E+00 
S    1    1.000000
   3.60000000E-02    1.00000000E+00 
P    1    1.000000
   7.50000000E-01    1.00000000E+00 

3    0
S    3    1.000000
   3.38650000E+01    2.54938000E-02 
   5.09479000E+00    1.90373000E-01 
   1.15879000E+00    8.52161000E-01 
S    1    1.000000
   3.25840000E-01    1.00000000E+00 
S    1    1.000000
   1.02741000E-01    1.00000000E+00 
S    1    1.000000
   3.60000000E-02    1.00000000E+00 
P    1    1.000000
   7.50000000E-01    1.00000000E+00 

4    0
S    3    1.000000
   3.38650000E+01    2.54938000E-02 
   5.09479000E+00    1.90373000E-01 
   1.15879000E+00    8.52161000E-01 
S    1    1.000000
   3.25840000E-01    1.00000000E+00 
S    1    1.000000
   1.02741000E-01    1.00000000E+00 
S    1    1.000000
   3.60000000E-02    1.00000000E+00 
P    1    1.000000
   7.50000000E-01    1.00000000E+00 

5    0
S    1    1.000000
   4.56324000E+03    1.96665000E-03 
S    1    1.000000
   6.82024000E+02    1.52306000E-02 
S    1    1.000000
   1.54973000E+02    7.61269000E-02 
S    1    1.000000
   4.44553000E+01    2.60801000E-01 
S    1    1.000000
   1.30290000E+01    6.16462000E-01 
S    1    1.000000
   1.82773000E+00    2.21006000E-01 
SP   3    1.000000
   2.09642000E+01    1.14660000E-01   4.02487000E-02 
   4.80331000E+00    9.19999000E-01   2.37594000E-01 
   1.45933000E+00   -3.03068000E-03   8.15854000E-01 
SP   1    1.000000
   4.83456000E-01    1.00000000E+00   1.00000000E+00 
SP   1    1.000000
   1.45585000E-01    1.00000000E+00   1.00000000E+00 
SP   1    1.000000
   4.38000000E-02    1.00000000E+00   1.00000000E+00 
SP   1    1.000000
   1.31927711E-02    1.00000000E+00   1.00000000E+00 
D    1    1.000000
   6.26000000E-01    1.00000000E+00 

6    0
S    1    1.000000
   8.58850000E+03    1.89515000E-03 
S    1    1.000000
   1.29723000E+03    1.43859000E-02 
S    1    1.000000
   2.99296000E+02    7.07320000E-02 
S    1    1.000000
   8.73771000E+01    2.40001000E-01 
S    1    1.000000
   2.56789000E+01    5.94797000E-01 
S    1    1.000000
   3.74004000E+00    2.80802000E-01 
SP   3    1.000000
   4.21175000E+01    1.13889000E-01   3.65114000E-02 
   9.62837000E+00    9.20811000E-01   2.37153000E-01 
   2.85332000E+00   -3.27447000E-03   8.19702000E-01 
SP   1    1.000000
   9.05661000E-01    1.00000000E+00   1.00000000E+00 
SP   1    1.000000
   2.55611000E-01    1.00000000E+00   1.00000000E+00 
SP   1    1.000000
   8.45000000E-02    1.00000000E+00   1.00000000E+00 
SP   1    1.000000
   2.54518072E-02    1.00000000E+00   1.00000000E+00 
D    1    1.000000
   1.29200000E+00    1.00000000E+00 

7    0
S    1    1.000000
   4.56324000E+03    1.96665000E-03 
S    1    1.000000
   6.82024000E+02    1.52306000E-02 
S    1    1.000000
   1.54973000E+02    7.61269000E-02 
S    1    1.000000
   4.44553000E+01    2.60801000E-01 
S    1    1.000000
   1.30290000E+01    6.16462000E-01 
S    1    1.000000
   1.82773000E+00    2.21006000E-01 
SP   3    1.000000
   2.09642000E+01    1.14660000E-01   4.02487000E-02 
   4.80331000E+00    9.19999000E-01   2.37594000E-01 
   1.45933000E+00   -3.03068000E-03   8.15854000E-01 
SP   1    1.000000
   4.83456000E-01    1.00000000E+00   1.00000000E+00 
SP   1    1.000000
   1.45585000E-01    1.00000000E+00   1.00000000E+00 
SP   1    1.000000
   4.38000000E-02    1.00000000E+00   1.00000000E+00 
SP   1    1.000000
   1.31927711E-02    1.00000000E+00   1.00000000E+00 
D    1    1.000000
   6.26000000E-01    1.00000000E+00 

8    0
S    1    1.000000
   8.58850000E+03    1.89515000E-03 
S    1    1.000000
   1.29723000E+03    1.43859000E-02 
S    1    1.000000
   2.99296000E+02    7.07320000E-02 
S    1    1.000000
   8.73771000E+01    2.40001000E-01 
S    1    1.000000
   2.56789000E+01    5.94797000E-01 
S    1    1.000000
   3.74004000E+00    2.80802000E-01 
SP   3    1.000000
   4.21175000E+01    1.13889000E-01   3.65114000E-02 
   9.62837000E+00    9.20811000E-01   2.37153000E-01 
   2.85332000E+00   -3.27447000E-03   8.19702000E-01 
SP   1    1.000000
   9.05661000E-01    1.00000000E+00   1.00000000E+00 
SP   1    1.000000
   2.55611000E-01    1.00000000E+00   1.00000000E+00 
SP   1    1.000000
   8.45000000E-02    1.00000000E+00   1.00000000E+00 
SP   1    1.000000
   2.54518072E-02    1.00000000E+00   1.00000000E+00 
D    1    1.000000
   1.29200000E+00    1.00000000E+00 

9    0
S    1    1.000000
   6.29348000E+03    1.96979000E-03 
S    1    1.000000
   9.49044000E+02    1.49613000E-02 
S    1    1.000000
   2.18776000E+02    7.35006000E-02 
S    1    1.000000
   6.36916000E+01    2.48937000E-01 
S    1    1.000000
   1.88282000E+01    6.02460000E-01 
S    1    1.000000
   2.72023000E+00    2.56202000E-01 
SP   3    1.000000
   3.06331000E+01    1.11906000E-01   3.83119000E-02 
   7.02614000E+00    9.21666000E-01   2.37403000E-01 
   2.11205000E+00   -2.56919000E-03   8.17592000E-01 
SP   1    1.000000
   6.84009000E-01    1.00000000E+00   1.00000000E+00 
SP   1    1.000000
   2.00878000E-01    1.00000000E+00   1.00000000E+00 
SP   1    1.000000
   6.39000000E-02    1.00000000E+00   1.00000000E+00 
SP   1    1.000000
   1.92469880E-02    1.00000000E+00   1.00000000E+00 
D    1    1.000000
   9.13000000E-01    1.00000000E+00 

10    0
S    1    1.000000
   6.29348000E+03    1.96979000E-03 
S    1    1.000000
   9.49044000E+02    1.49613000E-02 
S    1    1.000000
   2.18776000E+02    7.35006000E-02 
S    1    1.000000
   6.36916000E+01    2.48937000E-01 
S    1    1.000000
   1.88282000E+01    6.02460000E-01 
S    1    1.000000
   2.72023000E+00    2.56202000E-01 
SP   3    1.000000
   3.06331000E+01    1.11906000E-01   3.83119000E-02 
   7.02614000E+00    9.21666000E-01   2.37403000E-01 
   2.11205000E+00   -2.56919000E-03   8.17592000E-01 
SP   1    1.000000
   6.84009000E-01    1.00000000E+00   1.00000000E+00 
SP   1    1.000000
   2.00878000E-01    1.00000000E+00   1.00000000E+00 
SP   1    1.000000
   6.39000000E-02    1.00000000E+00   1.00000000E+00 
SP   1    1.000000
   1.92469880E-02    1.00000000E+00   1.00000000E+00 
D    1    1.000000
   9.13000000E-01    1.00000000E+00 

11    0
S    1    1.000000
   4.56324000E+03    1.96665000E-03 
S    1    1.000000
   6.82024000E+02    1.52306000E-02 
S    1    1.000000
   1.54973000E+02    7.61269000E-02 
S    1    1.000000
   4.44553000E+01    2.60801000E-01 
S    1    1.000000
   1.30290000E+01    6.16462000E-01 
S    1    1.000000
   1.82773000E+00    2.21006000E-01 
SP   3    1.000000
   2.09642000E+01    1.14660000E-01   4.02487000E-02 
   4.80331000E+00    9.19999000E-01   2.37594000E-01 
   1.45933000E+00   -3.03068000E-03   8.15854000E-01 
SP   1    1.000000
   4.83456000E-01    1.00000000E+00   1.00000000E+00 
SP   1    1.000000
   1.45585000E-01    1.00000000E+00   1.00000000E+00 
SP   1    1.000000
   4.38000000E-02    1.00000000E+00   1.00000000E+00 
SP   1    1.000000
   1.31927711E-02    1.00000000E+00   1.00000000E+00 
D    1    1.000000
   6.26000000E-01    1.00000000E+00 

12    0
S    3    1.000000
   3.38650000E+01    2.54938000E-02 
   5.09479000E+00    1.90373000E-01 
   1.15879000E+00    8.52161000E-01 
S    1    1.000000
   3.25840000E-01    1.00000000E+00 
S    1    1.000000
   1.02741000E-01    1.00000000E+00 
S    1    1.000000
   3.60000000E-02    1.00000000E+00 
P    1    1.000000
   7.50000000E-01    1.00000000E+00 

[MO]
Sym=X
Ene=0.952207
Spin=Alpha
Occup=1
1    -1.25480657e-09
2    1.33383892e-08
3    -1.00080973e-07
4    3.13621472e-07
5    -4.88266453e-06
6    -2.19976899e-05
7    1.25216143e-05
8    -8.3919737e-07
9    -8.13521638e-06
10    -1.66308836e-15
11    3.94326913e-05
12    1.24057236e-05
13    3.77364908e-05
14    -1.2723229e-15
15    0.000153106272
16    3.82193557e-05
17    5.08408484e-05
18    -1.84057036e-15
19    0.000884742907
20    -5.25464791e-05
21    0.000733078509
22    1.47957027e-14
23    6.01106985e-05
24    -0.000382856847
25    0.000275381029
26    5.71857763e-14
27    1.31600531e-06
28    1.54982393e-16
29    -5.41963539e-06
30    -5.90974803e-16
31    2.8646784e-06
32    7.07380902e-06
33    -2.88171018e-05
34    -0.000173215152
35    -0.000256076862
36    -2.94017879e-06
37    9.72095998e-07
38    -1.89593257e-17
39    3.20809571e-06
40    3.28242294e-06
41    3.6118048e-05
42    0.000627873037
43    -1.00604534e-06
44    2.3257523e-06
45    -7.76094024e-16
46    0.000239309053
47    5.90591213e-05
48    0.000320755927
49    0.000288970137
50    -3.40977408e-06
51    -9.79517503e-05
52    1.48470775e-15
53    2.22156708e-08
54    1.81196521e-07
55    7.72425007e-07
56    2.79016443e-06
57    1.02080553e-06
58    -5.06089572e-05
59    -4.4830351e-07
60    4.80830666e-05
61    2.25893336e-05
62    1.05658361e-15
63    0.000282788753
64    0.000293871894
65    0.000119932952
66    -6.80475651e-16
67    -0.000237427717
68    -0.00010732235
69    -0.000153550581
70    5.14654485e-15
71    -0.000960557542
72    -0.000522063538
73    0.00022624278
74    3.26286278e-14
75    -0.000992328854
76    -4.87712394e-05
77    0.000362801597
78    -7.58408075e-15
79    0.000131688053
80    3.27489959e-16
81    -1.15533449e-05
82    5.21581805e-16
83    0.000144632494
84    7.06350138e-09
85    7.14989854e-08
86    2.25299386e-07
87    1.2468626e-06
88    -1.46513029e-06
89    -1.43272541e-05
90    1.47583712e-05
91    -1.70741805e-05
92    -3.79596764e-06
93    5.45013559e-16
94    1.94991607e-05
95    3.75855995e-05
96    -8.71306833e-06
97    -2.31245994e-16
98    7.02671937e-05
99    8.87993534e-06
100    1.50198618e-05
101    3.62096412e-15
102    -0.000117180291
103    2.07436682e-05
104    1.08743585e-06
105    -1.02275258e-14
106    -0.000608864515
107    -4.2967512e-05
108    6.29206836e-05
109    9.14728836e-15
110    6.12138477e-07
111    -1.82815473e-16
112    -4.46055399e-06
113    2.81749289e-16
114    2.3679053e-05
115    1.99425194e-08
116    1.71599978e-07
117    6.73133205e-07
118    2.75649057e-06
119    7.84917608e-07
120    -3.49502231e-05
121    -6.32276522e-07
122    -4.52477364e-05
123    2.68856732e-05
124    1.71918496e-15
125    0.000237413896
126    -0.000240535352
127    0.00012119616
128    3.96753784e-15
129    -0.000233745509
130    7.15619701e-05
131    -8.35691445e-05
132    4.17917756e-15
133    -0.0016137305
134    0.000725188754
135    0.000362917704
136    2.49818133e-14
137    0.000188095793
138    0.000313751277
139    -3.39390006e-05
140    5.01292461e-14
141    -0.000116906231
142    1.01869379e-15
143    2.29229332e-06
144    1.35856806e-16
145    0.000117698514
146    6.84420901e-09
147    7.02981368e-08
148    2.16010773e-07
149    1.22805335e-06
150    -1.62921992e-06
151    -1.47675005e-05
152    1.49127619e-05
153    1.71124572e-05
154    -3.30596922e-06
155    1.90839896e-15
156    1.99699092e-05
157    -3.72170309e-05
158    -1.24818733e-05
159    3.49220712e-15
160    5.78804755e-05
161    7.05417226e-06
162    3.8915201e-06
163    3.66878414e-15
164    -0.000115426959
165    -4.05100604e-05
166    -3.80848242e-06
167    1.80896877e-15
168    -0.000662759754
169    5.81921684e-05
170    2.18532896e-05
171    -2.86123511e-15
172    2.53171771e-06
173    -1.60271893e-16
174    -5.49705863e-06
175    -7.20845019e-16
176    1.89727097e-05
177    0.00109720579
178    0.00835412868
179    0.0409332105
180    0.138942343
181    0.335936158
182    0.144067137
183    0.46747609
184    -0.000136781416
185    -0.000239486877
186    1.83105662e-15
187    0.00426583652
188    8.55391654e-05
189    9.96585289e-05
190    1.19911992e-15
191    -0.000256011923
192    -6.4374759e-05
193    -8.29863513e-05
194    5.27877948e-15
195    0.00221327216
196    -1.57880477e-05
197    -0.000889211587
198    -1.68821127e-14
199    0.00188904946
200    0.000152999181
201    -0.000465910436
202    -2.72024062e-14
203    -1.07417374e-05
204    -3.97196456e-17
205    -4.87982252e-06
206    -1.98323278e-16
207    -1.38582148e-05
208    2.93737427e-07
209    2.28445837e-06
210    1.08511946e-05
211    3.81691719e-05
212    8.07089094e-05
213    -1.68768261e-06
214    0.000152796098
215    -4.19209799e-06
216    -2.15397443e-05
217    -1.07711604e-15
218    6.64199983e-05
219    5.32175669e-06
220    6.94842787e-05
221    1.36474436e-16
222    -7.34701696e-05
223    -8.34569295e-05
224    -0.000106687278
225    -2.72213256e-15
226    -0.000453136336
227    -0.000332545196
228    -0.00019548626
229    -1.48704688e-14
230    -0.000517054338
231    -0.000383877426
232    0.000196995967
233    -3.29478169e-14
234    7.15693611e-06
235    1.03241224e-16
236    -6.20044535e-06
237    -4.07712519e-16
238    -2.53014863e-05
239    -9.48372886e-10
240    3.58978922e-08
241    -1.3148635e-07
242    7.79805422e-07
243    -8.74111501e-06
244    -4.01307223e-05
245    2.50228356e-05
246    1.36946839e-06
247    -1.90205724e-05
248    -1.05341544e-15
249    7.67811089e-05
250    2.39852382e-06
251    8.36232815e-05
252    3.09166865e-16
253    -0.000224182884
254    0.000144671192
255    -0.000107783088
256    -3.64602337e-15
257    0.000332276351
258    5.51985899e-05
259    -6.72766343e-05
260    -1.09569121e-14
261    0.000393798397
262    -0.000267759777
263    -0.000487727374
264    -6.8892842e-14
265    -7.6148234e-06
266    3.16055967e-16
267    -1.28546815e-06
268    5.15167889e-16
269    -3.99498156e-05
270    7.35148496e-06
271    -7.11104426e-06
272    -0.000102134854
273    -0.000101116891
274    -2.95171561e-06
275    6.44998646e-06
276    -2.60615202e-16
[5D]