                  Welcome to Q-Chem
     A Quantum Leap Into The Future Of Chemistry


 Q-Chem 5.2 (devel), Q-Chem, Inc., Pleasanton, CA (2019)

 Yihan Shao,  Zhengting Gan,  E. Epifanovsky,  A. T. B. Gilbert,  M. Wormit,  
 J. Kussmann,  A. W. Lange,  A. Behn,  Jia Deng,  Xintian Feng,  D. Ghosh,  
 M. Goldey,  P. R. Horn,  L. D. Jacobson,  I. Kaliman,  T. Kus,  A. Landau,  
 Jie Liu,  E. I. Proynov,  R. M. Richard,  R. P. Steele,  E. J. Sundstrom,  
 H. L. Woodcock III,  P. M. Zimmerman,  D. Zuev,  B. Albrecht,  E. Alguire,  
 S. A. Baeppler,  D. Barton,  Z. Benda,  Y. A. Bernard,  E. J. Berquist,  
 K. B. Bravaya,  H. Burton,  D. Casanova,  Chun-Min Chang,  Yunqing Chen,  
 A. Chien,  K. D. Closser,  M. P. Coons,  S. Coriani,  S. Dasgupta,  
 A. L. Dempwolff,  M. Diedenhofen,  Hainam Do,  R. G. Edgar,  Po-Tung Fang,  
 S. Faraji,  S. Fatehi,  Qingguo Feng,  K. D. Fenk,  J. Fosso-Tande,  
 J. Gayvert,  Qinghui Ge,  A. Ghysels,  G. Gidofalvi,  J. Gomes,  
 J. Gonthier,  A. Gunina,  D. Hait,  M. W. D. Hanson-Heine,  
 P. H. P. Harbach,  A. W. Hauser,  M. F. Herbst,  J. E. Herr,  
 E. G. Hohenstein,  Z. C. Holden,  Kerwin Hui,  B. C. Huynh,  T.-C. Jagau,  
 Hyunjun Ji,  B. Kaduk,  K. Khistyaev,  Jaehoon Kim,  P. Klunzinger,  K. Koh,  
 D. Kosenkov,  L. Koulias,  T. Kowalczyk,  C. M. Krauter,  A. Kunitsa,  
 Ka Un Lao,  A. Laurent,  K. V. Lawler,  Joonho Lee,  D. Lefrancois,  
 S. Lehtola,  D. S. Levine,  Yi-Pei Li,  You-Sheng Lin,  Fenglai Liu,  
 E. Livshits,  A. Luenser,  P. Manohar,  E. Mansoor,  S. F. Manzer,  
 Shan-Ping Mao,  Yuezhi Mao,  N. Mardirossian,  A. V. Marenich,  
 T. Markovich,  L. A. Martinez-Martinez,  S. A. Maurer,  N. J. Mayhall,  
 S. C. McKenzie,  J.-M. Mewes,  P. Morgante,  A. F. Morrison,  
 J. W. Mullinax,  K. Nanda,  T. S. Nguyen-Beck,  R. Olivares-Amaya,  
 J. A. Parkhill,  Zheng Pei,  T. M. Perrine,  F. Plasser,  P. Pokhilko,  
 S. Prager,  A. Prociuk,  E. Ramos,  D. R. Rehn,  F. Rob,  M. Scheurer,  
 M. Schneider,  N. Sergueev,  S. M. Sharada,  S. Sharma,  D. W. Small,  
 T. Stauch,  T. Stein,  Yu-Chuan Su,  A. J. W. Thom,  A. Tkatchenko,  
 T. Tsuchimochi,  N. M. Tubman,  L. Vogt,  M. L. Vidal,  O. Vydrov,  
 M. A. Watson,  J. Wenzel,  M. de Wergifosse,  T. A. Wesolowski,  A. White,  
 J. Witte,  A. Yamada,  Jun Yang,  K. Yao,  S. Yeganeh,  S. R. Yost,  
 Zhi-Qiang You,  A. Zech,  Igor Ying Zhang,  Xing Zhang,  Yan Zhao,  
 Ying Zhu,  B. R. Brooks,  G. K. L. Chan,  C. J. Cramer,  M. S. Gordon,  
 W. J. Hehre,  A. Klamt,  M. W. Schmidt,  C. D. Sherrill,  D. G. Truhlar,  
 A. Aspuru-Guzik,  R. Baer,  A. T. Bell,  N. A. Besley,  Jeng-Da Chai,  
 A. E. DePrince, III,  R. A. DiStasio Jr.,  A. Dreuw,  B. D. Dunietz,  
 T. R. Furlani,  Chao-Ping Hsu,  Yousung Jung,  Jing Kong,  D. S. Lambrecht,  
 WanZhen Liang,  C. Ochsenfeld,  V. A. Rassolov,  L. V. Slipchenko,  
 J. E. Subotnik,  T. Van Voorhis,  J. M. Herbert,  A. I. Krylov,  
 P. M. W. Gill,  M. Head-Gordon

 Contributors to earlier versions of Q-Chem not listed above: 
 R. D. Adamson,  B. Austin,  J. Baker,  G. J. O. Beran,  K. Brandhorst,  
 S. T. Brown,  E. F. C. Byrd,  A. K. Chakraborty,  C.-L. Cheng,  
 Siu Hung Chien,  D. M. Chipman,  D. L. Crittenden,  H. Dachsel,  
 R. J. Doerksen,  A. D. Dutoi,  L. Fusti-Molnar,  W. A. Goddard III,  
 A. Golubeva-Zadorozhnaya,  S. R. Gwaltney,  G. Hawkins,  A. Heyden,  
 S. Hirata,  G. Kedziora,  F. J. Keil,  C. Kelley,  Jihan Kim,  R. A. King,  
 R. Z. Khaliullin,  P. P. Korambath,  W. Kurlancheek,  A. M. Lee,  M. S. Lee,  
 S. V. Levchenko,  Ching Yeh Lin,  D. Liotard,  R. C. Lochan,  I. Lotan,  
 P. E. Maslen,  N. Nair,  D. P. O'Neill,  D. Neuhauser,  E. Neuscamman,  
 C. M. Oana,  R. Olson,  B. Peters,  R. Peverati,  P. A. Pieniazek,  
 Y. M. Rhee,  J. Ritchie,  M. A. Rohrdanz,  E. Rosta,  N. J. Russ,  
 H. F. Schaefer III,  N. E. Schultz,  N. Shenvi,  A. C. Simmonett,  A. Sodt,  
 D. Stuck,  K. S. Thanthiriwatte,  V. Vanovschi,  Tao Wang,  A. Warshel,  
 C. F. Williams,  Q. Wu,  X. Xu,  W. Zhang

 Please cite Q-Chem as follows:
 Y. Shao et al., Mol. Phys. 113, 184-215 (2015)
 DOI: 10.1080/00268976.2014.952696

 Q-Chem 5.2.0 for Intel X86 EM64T Linux

 Parts of Q-Chem use Armadillo 8.300.2 (Tropical Shenanigans).
 http://arma.sourceforge.net/

 Q-Chem begins on Wed Jun 12 18:13:17 2019  

n-62-23-20
Host: 0

     Scratch files written to /work1/malop/qc_8407450.hnode2/qchem3017//
NAlpha2: 58
NElect   58
Mult     1

Checking the input file for inconsistencies... 	...done.

--------------------------------------------------------------
User input:
--------------------------------------------------------------
$comment
Uracil XPS O K-edge 6-311(2+,+)G** (uc)
geometry optimizion: mp2/cc-pvtz
$end

$molecule
0 1
C        0.052842   -1.701332    0.000000
H       -2.016793   -1.512231    0.000000
H       -0.025494   -2.778299    0.000000
H       -0.023568    1.988544    0.000000
C       -1.232948    0.358893    0.000000
O       -2.294123    0.950188    0.000000
C        1.274970    0.391620    0.000000
O        2.275873    1.086244    0.000000
N        0.000000    0.978006    0.000000
N       -1.137535   -1.023018    0.000000
C        1.239239   -1.061325    0.000000
H        2.169983   -1.601520    0.000000
$end

$rem
JOBTYPE SP
BASIS GENERAL
METHOD HF
n_frozen_core = 4
$end

$basis
H    0
6-311(2+,+)G**
****
O    0
S    1    1.000000
   8.58850000E+03    1.89515000E-03
S    1    1.000000
   1.29723000E+03    1.43859000E-02
S    1    1.000000
   2.99296000E+02    7.07320000E-02
S    1    1.000000
   8.73771000E+01    2.40001000E-01
S    1    1.000000
   2.56789000E+01    5.94797000E-01
S    1    1.000000
   3.74004000E+00    2.80802000E-01
SP   3    1.000000
   4.21175000E+01    1.13889000E-01   3.65114000E-02
   9.62837000E+00    9.20811000E-01   2.37153000E-01
   2.85332000E+00   -3.27447000E-03   8.19702000E-01
SP   1    1.000000
   9.05661000E-01    1.00000000E+00   1.00000000E+00
SP   1    1.000000
   2.55611000E-01    1.00000000E+00   1.00000000E+00
SP   1    1.000000
   8.45000000E-02    1.00000000E+00   1.00000000E+00
SP   1    1.000000
   2.54518072E-02    1.00000000E+00   1.00000000E+00
D    1    1.000000
   1.29200000E+00    1.00000000E+00
****
N    0
S    1    1.000000
   6.29348000E+03    1.96979000E-03
S    1    1.000000
   9.49044000E+02    1.49613000E-02
S    1    1.000000
   2.18776000E+02    7.35006000E-02
S    1    1.000000
   6.36916000E+01    2.48937000E-01
S    1    1.000000
   1.88282000E+01    6.02460000E-01
S    1    1.000000
   2.72023000E+00    2.56202000E-01
SP   3    1.000000
   3.06331000E+01    1.11906000E-01   3.83119000E-02
   7.02614000E+00    9.21666000E-01   2.37403000E-01
   2.11205000E+00   -2.56919000E-03   8.17592000E-01
SP   1    1.000000
   6.84009000E-01    1.00000000E+00   1.00000000E+00
SP   1    1.000000
   2.00878000E-01    1.00000000E+00   1.00000000E+00
SP   1    1.000000
   6.39000000E-02    1.00000000E+00   1.00000000E+00
SP   1    1.000000
   1.92469880E-02    1.00000000E+00   1.00000000E+00
D    1    1.000000
   9.13000000E-01    1.00000000E+00
****
C    0
S    1    1.000000
   4.56324000E+03    1.96665000E-03
S    1    1.000000
   6.82024000E+02    1.52306000E-02
S    1    1.000000
   1.54973000E+02    7.61269000E-02
S    1    1.000000
   4.44553000E+01    2.60801000E-01
S    1    1.000000
   1.30290000E+01    6.16462000E-01
S    1    1.000000
   1.82773000E+00    2.21006000E-01
SP   3    1.000000
   2.09642000E+01    1.14660000E-01   4.02487000E-02
   4.80331000E+00    9.19999000E-01   2.37594000E-01
   1.45933000E+00   -3.03068000E-03   8.15854000E-01
SP   1    1.000000
   4.83456000E-01    1.00000000E+00   1.00000000E+00
SP   1    1.000000
   1.45585000E-01    1.00000000E+00   1.00000000E+00
SP   1    1.000000
   4.38000000E-02    1.00000000E+00   1.00000000E+00
SP   1    1.000000
   1.31927711E-02    1.00000000E+00   1.00000000E+00
D    1    1.000000
   6.26000000E-01    1.00000000E+00
****
$end
--------------------------------------------------------------
 ----------------------------------------------------------------
             Standard Nuclear Orientation (Angstroms)
    I     Atom           X                Y                Z
 ----------------------------------------------------------------
    1      C      -0.0071423615    -1.7021374661    -0.0000000000
    2      H      -2.0688284730    -1.4402241233     0.0000000000
    3      H      -0.1233798667    -2.7756752113     0.0000000000
    4      H       0.0465189185     1.9881394681    -0.0000000000
    5      C      -1.2195356258     0.4021166886     0.0000000000
    6      O      -2.2592155329     1.0304381418     0.0000000000
    7      C       1.2879780632     0.3464493659    -0.0000000000
    8      O       2.3127366072     1.0053721559    -0.0000000000
    9      N       0.0344629504     0.9773985746    -0.0000000000
   10      N      -1.1728776526    -0.9822982369     0.0000000000
   11      C       1.2010703878    -1.1043341925    -0.0000000000
   12      H       2.1122009607    -1.6769912546    -0.0000000000
 ----------------------------------------------------------------
 Molecular Point Group                 Cs    NOp =  2
 Largest Abelian Subgroup              Cs    NOp =  2
 Nuclear Repulsion Energy =         357.01163035 hartrees
 There are       29 alpha and       29 beta electrons
 Requested basis set is non-standard
 There are 116 shells and 276 basis functions

 Total QAlloc Memory Limit   2000 MB
 Mega-Array Size       188 MB
 MEM_STATIC part       192 MB

                       Distance Matrix (Angstroms)
             C (  1)   H (  2)   H (  3)   H (  4)   C (  5)   O (  6)
   H (  2)  2.078256
   H (  3)  1.079812  2.359703
   H (  4)  3.690667  4.028445  4.766843
   C (  5)  2.428535  2.028674  3.361535  2.029375
   O (  6)  3.541017  2.477987  4.364435  2.496718  1.214793
   C (  7)  2.423643  3.802677  3.426309  2.058244  2.508132  3.612537
   O (  8)  3.565452  5.017873  4.497886  2.470136  3.583415  4.572021
   N (  9)  2.679859  3.204487  3.756392  1.010813  1.379660  2.294292
   N ( 10)  1.370076  1.006193  2.077895  3.210986  1.385201  2.287190
   C ( 11)  1.348016  3.287105  2.132498  3.300967  2.851092  4.065813
   H ( 12)  2.119492  4.187728  2.490969  4.207164  3.927233  5.141931
             C (  7)   O (  8)   N (  9)   N ( 10)   C ( 11)
   O (  8)  1.218322
   N (  9)  1.403352  2.278445
   N ( 10)  2.796673  4.012523  2.301756
   C ( 11)  1.453384  2.384672  2.386333  2.377083
   H ( 12)  2.184870  2.689849  3.370872  3.357728  1.076148

 A cutoff of  1.0D-08 yielded   5065 shell pairs
 There are     33838 function pairs (     35835 Cartesian)
 Smallest overlap matrix eigenvalue = 2.79E-07

 Q-Chem warning in module stvman/mkSTV.C, line 318:

 Overlap eigenvalue is smaller than square root of threshold
 Use THRESH >= 12 to get rid of this warning

 Linear dependence detected in AO basis
 Tighter screening thresholds may be required for diffuse basis sets
 Use S2THRESH > 14 and THRESH = 14 in case of SCF convergence issues
 Number of orthogonalized atomic orbitals = 274
 Maximum deviation from orthogonality = 1.629E-10

 Scale SEOQF with 1.000000e-01/1.000000e-01/1.000000e-01

 Standard Electronic Orientation quadrupole field applied
 Nucleus-field energy     =     0.0000000098 hartrees
 Guess MOs from core Hamiltonian diagonalization

 -----------------------------------------------------------------------
  General SCF calculation program by
  Eric Jon Sundstrom, Paul Horn, Yuezhi Mao, Dmitri Zuev, Alec White,
  David Stuck, Shaama M.S., Shane Yost, Joonho Lee, David Small,
  Daniel Levine, Susi Lehtola, Hugh Burton, Evgeny Epifanovsky
 -----------------------------------------------------------------------
 Hartree-Fock
 using 4 threads for integral computing
 -------------------------------------------------------
 OpenMP Integral computing Module                
 Release: version 2.0, May 2017, Q-Chem Inc. Pleasanton 
 -------------------------------------------------------
 A restricted SCF calculation will be
 performed using DIIS
 SCF converges when DIIS error is below 1.0e-05
 ---------------------------------------
  Cycle       Energy         DIIS error
 ---------------------------------------
    1    -317.6975961558      1.18e-01  
    2    -296.6532621367      6.20e-02  
    3    -298.4315755222      7.94e-02  
    4    -386.6508334398      4.37e-02  
    5    -406.3538014684      2.27e-02  
    6    -409.8815601921      1.65e-02  
    7    -412.4527302651      2.86e-03  
    8    -412.5540541341      1.08e-03  
    9    -412.5713949428      6.06e-04  
   10    -412.5782827419      2.50e-04  
   11    -412.5798892808      1.35e-04  
   12    -412.5802385756      5.44e-05  
   13    -412.5803257112      2.02e-05  
   14    -412.5803327738      6.00e-06  Convergence criterion met
 ---------------------------------------
 SCF time:   CPU 98.81s  wall 26.00s 
 SCF   energy in the final basis set =     -412.5803327738
 Total energy in the final basis set =     -412.5803327738

 --------------------------------------------------------------
             Orbital Energies (a.u.) and Symmetries
 --------------------------------------------------------------

 Alpha MOs, Restricted
 -- Occupied --                  
-20.550 -20.545 -15.649 -15.632 -11.427 -11.388 -11.346 -11.261
  1 A'    2 A'    3 A'    4 A'    5 A'    6 A'    7 A'    8 A'                 
 -1.442  -1.404  -1.319  -1.250  -1.093  -0.938  -0.906  -0.812
  9 A'   10 A'   11 A'   12 A'   13 A'   14 A'   15 A'   16 A'                 
 -0.770  -0.718  -0.681  -0.671  -0.657  -0.619  -0.605  -0.573
 17 A'   18 A'   19 A'    1 A"   20 A'   21 A'   22 A'    2 A"                 
 -0.528  -0.487  -0.452  -0.438  -0.371
  3 A"   23 A'   24 A'    4 A"    5 A"                                         
 -- Virtual --                   
  0.005   0.019   0.020   0.022   0.031   0.033   0.035   0.036
 25 A'   26 A'    6 A"   27 A'   28 A'   29 A'   30 A'    7 A"                 
  0.038   0.046   0.047   0.049   0.053   0.054   0.055   0.068
  8 A"   31 A'   32 A'   33 A'   34 A'    9 A"   35 A'   36 A'                 
  0.072   0.072   0.079   0.085   0.086   0.088   0.095   0.097
 10 A"   37 A'   11 A"   38 A'   12 A"   39 A'   40 A'   41 A'                 
  0.112   0.116   0.118   0.120   0.127   0.131   0.134   0.137
 13 A"   14 A"   42 A'   43 A'   44 A'   45 A'   46 A'   47 A'                 
  0.138   0.155   0.162   0.164   0.172   0.184   0.189   0.195
 48 A'   15 A"   49 A'   50 A'   16 A"   51 A'   17 A"   52 A'                 
  0.209   0.210   0.224   0.230   0.235   0.241   0.243   0.260
 53 A'   18 A"   54 A'   55 A'   56 A'   19 A"   57 A'   58 A'                 
  0.266   0.270   0.278   0.279   0.286   0.296   0.300   0.333
 59 A'   60 A'   20 A"   61 A'   62 A'   21 A"   63 A'   22 A"                 
  0.333   0.347   0.373   0.388   0.391   0.405   0.410   0.410
 64 A'   65 A'   66 A'   67 A'   68 A'   69 A'   23 A"   70 A'                 
  0.420   0.422   0.441   0.449   0.455   0.463   0.481   0.482
 24 A"   71 A'   72 A'   73 A'   74 A'   75 A'   76 A'   77 A'                 
  0.505   0.529   0.545   0.558   0.615   0.630   0.655   0.706
 78 A'   79 A'   80 A'   81 A'   82 A'   83 A'   84 A'   85 A'                 
  0.734   0.740   0.761   0.776   0.778   0.799   0.822   0.824
 86 A'   25 A"   87 A'   26 A"   88 A'   27 A"   28 A"   89 A'                 
  0.878   0.888   0.938   0.963   0.971   0.979   1.008   1.015
 90 A'   91 A'   92 A'   93 A'   94 A'   95 A'   96 A'   97 A'                 
  1.029   1.042   1.061   1.093   1.100   1.114   1.159   1.227
 98 A'   29 A"   99 A'   30 A"  100 A'  101 A'  102 A'   31 A"                 
  1.242   1.245   1.270   1.301   1.368   1.370   1.393   1.406
 32 A"  103 A'  104 A'  105 A'  106 A'   33 A"   34 A"   35 A"                 
  1.421   1.441   1.460   1.464   1.513   1.515   1.543   1.557
 36 A"  107 A'  108 A'   37 A"   38 A"  109 A'  110 A'  111 A'                 
  1.583   1.760   1.777   1.803   1.814   1.877   1.899   1.915
112 A'  113 A'  114 A'  115 A'   39 A"  116 A'   40 A"  117 A'                 
  1.929   1.952   1.980   2.013   2.014   2.067   2.124   2.143
 41 A"  118 A'  119 A'   42 A"  120 A'  121 A'  122 A'  123 A'                 
  2.186   2.223   2.236   2.283   2.299   2.339   2.357   2.532
124 A'   43 A"  125 A'  126 A'  127 A'   44 A"  128 A'  129 A'                 
  2.566   2.589   2.643   2.668   2.728   2.807   2.822   2.851
 45 A"  130 A'   46 A"  131 A'   47 A"  132 A'   48 A"  133 A'                 
  2.932   2.957   3.006   3.019   3.048   3.094   3.168   3.181
134 A'  135 A'  136 A'  137 A'  138 A'   49 A"   50 A"  139 A'                 
  3.184   3.211   3.263   3.271   3.297   3.310   3.325   3.347
 51 A"  140 A'   52 A"  141 A'  142 A'   53 A"  143 A'   54 A"                 
  3.401   3.515   3.588   3.756   3.767   3.819   3.840   3.876
144 A'  145 A'  146 A'   55 A"   56 A"  147 A'  148 A'  149 A'                 
  3.914   3.959   4.017   4.049   4.106   4.288   4.305   4.364
150 A'  151 A'  152 A'  153 A'  154 A'  155 A'   57 A"   58 A"                 
  4.411   4.485   4.605   5.012   5.158   5.288   5.441   5.553
156 A'  157 A'  158 A'  159 A'  160 A'  161 A'  162 A'  163 A'                 
  5.625   5.633   5.690   5.713   5.783   5.864   5.902   6.438
 59 A"   60 A"  164 A'  165 A'  166 A'  167 A'  168 A'  169 A'                 
  6.445   7.668   7.729   9.888   9.934  20.639  20.695  20.726
170 A'  171 A'  172 A'  173 A'  174 A'  175 A'  176 A'  177 A'                 
 20.897  30.195  30.235  40.894  40.936  80.190  80.235  80.273
178 A'  179 A'  180 A'  181 A'  182 A'  183 A'  184 A'  185 A'                 
 80.428 116.314 116.350 159.240 159.273 322.013 322.053 322.094
186 A'  187 A'  188 A'  189 A'  190 A'  191 A'  192 A'  193 A'                 
322.233 460.413 460.445 631.938 631.9651431.5641431.6041431.646
194 A'  195 A'  196 A'  197 A'  198 A'  199 A'  200 A'  201 A'                 
*******2012.8872012.9162759.3342759.3578749.7838749.8248749.866
202 A'  203 A'  204 A'  205 A'  206 A'  207 A'  208 A'  209 A'                 
***************************************
210 A'  211 A'  212 A'  213 A'  214 A'                                         

 Beta MOs, Restricted
 -- Occupied --                  
-20.550 -20.545 -15.649 -15.632 -11.427 -11.388 -11.346 -11.261
  1 A'    2 A'    3 A'    4 A'    5 A'    6 A'    7 A'    8 A'                 
 -1.442  -1.404  -1.319  -1.250  -1.093  -0.938  -0.906  -0.812
  9 A'   10 A'   11 A'   12 A'   13 A'   14 A'   15 A'   16 A'                 
 -0.770  -0.718  -0.681  -0.671  -0.657  -0.619  -0.605  -0.573
 17 A'   18 A'   19 A'    1 A"   20 A'   21 A'   22 A'    2 A"                 
 -0.528  -0.487  -0.452  -0.438  -0.371
  3 A"   23 A'   24 A'    4 A"    5 A"                                         
 -- Virtual --                   
  0.005   0.019   0.020   0.022   0.031   0.033   0.035   0.036
 25 A'   26 A'    6 A"   27 A'   28 A'   29 A'   30 A'    7 A"                 
  0.038   0.046   0.047   0.049   0.053   0.054   0.055   0.068
  8 A"   31 A'   32 A'   33 A'   34 A'    9 A"   35 A'   36 A'                 
  0.072   0.072   0.079   0.085   0.086   0.088   0.095   0.097
 10 A"   37 A'   11 A"   38 A'   12 A"   39 A'   40 A'   41 A'                 
  0.112   0.116   0.118   0.120   0.127   0.131   0.134   0.137
 13 A"   14 A"   42 A'   43 A'   44 A'   45 A'   46 A'   47 A'                 
  0.138   0.155   0.162   0.164   0.172   0.184   0.189   0.195
 48 A'   15 A"   49 A'   50 A'   16 A"   51 A'   17 A"   52 A'                 
  0.209   0.210   0.224   0.230   0.235   0.241   0.243   0.260
 53 A'   18 A"   54 A'   55 A'   56 A'   19 A"   57 A'   58 A'                 
  0.266   0.270   0.278   0.279   0.286   0.296   0.300   0.333
 59 A'   60 A'   20 A"   61 A'   62 A'   21 A"   63 A'   22 A"                 
  0.333   0.347   0.373   0.388   0.391   0.405   0.410   0.410
 64 A'   65 A'   66 A'   67 A'   68 A'   69 A'   23 A"   70 A'                 
  0.420   0.422   0.441   0.449   0.455   0.463   0.481   0.482
 24 A"   71 A'   72 A'   73 A'   74 A'   75 A'   76 A'   77 A'                 
  0.505   0.529   0.545   0.558   0.615   0.630   0.655   0.706
 78 A'   79 A'   80 A'   81 A'   82 A'   83 A'   84 A'   85 A'                 
  0.734   0.740   0.761   0.776   0.778   0.799   0.822   0.824
 86 A'   25 A"   87 A'   26 A"   88 A'   27 A"   28 A"   89 A'                 
  0.878   0.888   0.938   0.963   0.971   0.979   1.008   1.015
 90 A'   91 A'   92 A'   93 A'   94 A'   95 A'   96 A'   97 A'                 
  1.029   1.042   1.061   1.093   1.100   1.114   1.159   1.227
 98 A'   29 A"   99 A'   30 A"  100 A'  101 A'  102 A'   31 A"                 
  1.242   1.245   1.270   1.301   1.368   1.370   1.393   1.406
 32 A"  103 A'  104 A'  105 A'  106 A'   33 A"   34 A"   35 A"                 
  1.421   1.441   1.460   1.464   1.513   1.515   1.543   1.557
 36 A"  107 A'  108 A'   37 A"   38 A"  109 A'  110 A'  111 A'                 
  1.583   1.760   1.777   1.803   1.814   1.877   1.899   1.915
112 A'  113 A'  114 A'  115 A'   39 A"  116 A'   40 A"  117 A'                 
  1.929   1.952   1.980   2.013   2.014   2.067   2.124   2.143
 41 A"  118 A'  119 A'   42 A"  120 A'  121 A'  122 A'  123 A'                 
  2.186   2.223   2.236   2.283   2.299   2.339   2.357   2.532
124 A'   43 A"  125 A'  126 A'  127 A'   44 A"  128 A'  129 A'                 
  2.566   2.589   2.643   2.668   2.728   2.807   2.822   2.851
 45 A"  130 A'   46 A"  131 A'   47 A"  132 A'   48 A"  133 A'                 
  2.932   2.957   3.006   3.019   3.048   3.094   3.168   3.181
134 A'  135 A'  136 A'  137 A'  138 A'   49 A"   50 A"  139 A'                 
  3.184   3.211   3.263   3.271   3.297   3.310   3.325   3.347
 51 A"  140 A'   52 A"  141 A'  142 A'   53 A"  143 A'   54 A"                 
  3.401   3.515   3.588   3.756   3.767   3.819   3.840   3.876
144 A'  145 A'  146 A'   55 A"   56 A"  147 A'  148 A'  149 A'                 
  3.914   3.959   4.017   4.049   4.106   4.288   4.305   4.364
150 A'  151 A'  152 A'  153 A'  154 A'  155 A'   57 A"   58 A"                 
  4.411   4.485   4.605   5.012   5.158   5.288   5.441   5.553
156 A'  157 A'  158 A'  159 A'  160 A'  161 A'  162 A'  163 A'                 
  5.625   5.633   5.690   5.713   5.783   5.864   5.902   6.438
 59 A"   60 A"  164 A'  165 A'  166 A'  167 A'  168 A'  169 A'                 
  6.445   7.668   7.729   9.888   9.934  20.639  20.695  20.726
170 A'  171 A'  172 A'  173 A'  174 A'  175 A'  176 A'  177 A'                 
 20.897  30.195  30.235  40.894  40.936  80.190  80.235  80.273
178 A'  179 A'  180 A'  181 A'  182 A'  183 A'  184 A'  185 A'                 
 80.428 116.314 116.350 159.240 159.273 322.013 322.053 322.094
186 A'  187 A'  188 A'  189 A'  190 A'  191 A'  192 A'  193 A'                 
322.233 460.413 460.445 631.938 631.9651431.5641431.6041431.646
194 A'  195 A'  196 A'  197 A'  198 A'  199 A'  200 A'  201 A'                 
*******2012.8872012.9162759.3342759.3578749.7838749.8248749.866
202 A'  203 A'  204 A'  205 A'  206 A'  207 A'  208 A'  209 A'                 
***************************************
210 A'  211 A'  212 A'  213 A'  214 A'                                         
 --------------------------------------------------------------

          Ground-State Mulliken Net Atomic Charges

     Atom                 Charge (a.u.)
  ----------------------------------------
      1 C                     0.041962
      2 H                     0.361938
      3 H                     0.164085
      4 H                     0.395021
      5 C                     0.244778
      6 O                    -0.078939
      7 C                     0.021847
      8 O                    -0.117989
      9 N                    -0.604087
     10 N                    -0.410817
     11 C                    -0.261783
     12 H                     0.243984
  ----------------------------------------
  Sum of atomic charges =     0.000000

 -----------------------------------------------------------------
                    Cartesian Multipole Moments
 -----------------------------------------------------------------
    Charge (ESU x 10^10)
                 0.0000
    Dipole Moment (Debye)
         X      -1.3823      Y      -4.9563      Z       0.0000
       Tot       5.1454
    Quadrupole Moments (Debye-Ang)
        XX     -60.6810     XY       2.5048     YY     -38.3412
        XZ       0.0000     YZ      -0.0000     ZZ     -46.9505
    Octopole Moments (Debye-Ang^2)
       XXX     -11.3535    XXY     -34.8415    XYY      -5.2027
       YYY      -9.0742    XXZ       0.0000    XYZ      -0.0000
       YYZ       0.0000    XZZ      -1.9199    YZZ       4.3262
       ZZZ       0.0000
    Hexadecapole Moments (Debye-Ang^3)
      XXXX    -728.3306   XXXY      12.7357   XXYY    -177.0130
      XYYY      13.2601   YYYY    -304.4779   XXXZ       0.0000
      XXYZ      -0.0000   XYYZ      -0.0000   YYYZ      -0.0000
      XXZZ    -114.2378   XYZZ       2.9668   YYZZ     -75.7697
      XZZZ       0.0000   YZZZ      -0.0000   ZZZZ     -46.9997
 -----------------------------------------------------------------
Archival summary:
1\1\n-62-23-20\SP\HF\BasisUnspecified\2244\malop\WedJun1218:13:442019WedJun1218:13:442019\0\\#,HF,BasisUnspecified,\\0,1\N\H,1,1.01081\C,1,1.37966,2,115.327\O,3,1.21479,1,124.21,2,-0,0\N,3,1.3852,1,112.713,2,-180,0\H,5,1.00619,3,115.142,1,-180,0\C,5,1.37008,3,123.626,1,-0,0\H,7,1.07981,5,115.516,3,-180,0\C,7,1.34802,5,121.979,3,0,0\H,9,1.07615,7,121.525,5,-180,0\C,1,1.40335,2,116.035,3,-180,0\O,11,1.21832,1,120.541,2,-0,0\\HF=-412.580333\\@

 Total job time:  26.86s(wall), 99.22s(cpu) 
 Wed Jun 12 18:13:44 2019

        *************************************************************
        *                                                           *
        *  Thank you very much for using Q-Chem.  Have a nice day.  *
        *                                                           *
        *************************************************************


 
User input: 2 of 2 
 
                  Welcome to Q-Chem
     A Quantum Leap Into The Future Of Chemistry


 Q-Chem 5.2 (devel), Q-Chem, Inc., Pleasanton, CA (2019)

 Yihan Shao,  Zhengting Gan,  E. Epifanovsky,  A. T. B. Gilbert,  M. Wormit,  
 J. Kussmann,  A. W. Lange,  A. Behn,  Jia Deng,  Xintian Feng,  D. Ghosh,  
 M. Goldey,  P. R. Horn,  L. D. Jacobson,  I. Kaliman,  T. Kus,  A. Landau,  
 Jie Liu,  E. I. Proynov,  R. M. Richard,  R. P. Steele,  E. J. Sundstrom,  
 H. L. Woodcock III,  P. M. Zimmerman,  D. Zuev,  B. Albrecht,  E. Alguire,  
 S. A. Baeppler,  D. Barton,  Z. Benda,  Y. A. Bernard,  E. J. Berquist,  
 K. B. Bravaya,  H. Burton,  D. Casanova,  Chun-Min Chang,  Yunqing Chen,  
 A. Chien,  K. D. Closser,  M. P. Coons,  S. Coriani,  S. Dasgupta,  
 A. L. Dempwolff,  M. Diedenhofen,  Hainam Do,  R. G. Edgar,  Po-Tung Fang,  
 S. Faraji,  S. Fatehi,  Qingguo Feng,  K. D. Fenk,  J. Fosso-Tande,  
 J. Gayvert,  Qinghui Ge,  A. Ghysels,  G. Gidofalvi,  J. Gomes,  
 J. Gonthier,  A. Gunina,  D. Hait,  M. W. D. Hanson-Heine,  
 P. H. P. Harbach,  A. W. Hauser,  M. F. Herbst,  J. E. Herr,  
 E. G. Hohenstein,  Z. C. Holden,  Kerwin Hui,  B. C. Huynh,  T.-C. Jagau,  
 Hyunjun Ji,  B. Kaduk,  K. Khistyaev,  Jaehoon Kim,  P. Klunzinger,  K. Koh,  
 D. Kosenkov,  L. Koulias,  T. Kowalczyk,  C. M. Krauter,  A. Kunitsa,  
 Ka Un Lao,  A. Laurent,  K. V. Lawler,  Joonho Lee,  D. Lefrancois,  
 S. Lehtola,  D. S. Levine,  Yi-Pei Li,  You-Sheng Lin,  Fenglai Liu,  
 E. Livshits,  A. Luenser,  P. Manohar,  E. Mansoor,  S. F. Manzer,  
 Shan-Ping Mao,  Yuezhi Mao,  N. Mardirossian,  A. V. Marenich,  
 T. Markovich,  L. A. Martinez-Martinez,  S. A. Maurer,  N. J. Mayhall,  
 S. C. McKenzie,  J.-M. Mewes,  P. Morgante,  A. F. Morrison,  
 J. W. Mullinax,  K. Nanda,  T. S. Nguyen-Beck,  R. Olivares-Amaya,  
 J. A. Parkhill,  Zheng Pei,  T. M. Perrine,  F. Plasser,  P. Pokhilko,  
 S. Prager,  A. Prociuk,  E. Ramos,  D. R. Rehn,  F. Rob,  M. Scheurer,  
 M. Schneider,  N. Sergueev,  S. M. Sharada,  S. Sharma,  D. W. Small,  
 T. Stauch,  T. Stein,  Yu-Chuan Su,  A. J. W. Thom,  A. Tkatchenko,  
 T. Tsuchimochi,  N. M. Tubman,  L. Vogt,  M. L. Vidal,  O. Vydrov,  
 M. A. Watson,  J. Wenzel,  M. de Wergifosse,  T. A. Wesolowski,  A. White,  
 J. Witte,  A. Yamada,  Jun Yang,  K. Yao,  S. Yeganeh,  S. R. Yost,  
 Zhi-Qiang You,  A. Zech,  Igor Ying Zhang,  Xing Zhang,  Yan Zhao,  
 Ying Zhu,  B. R. Brooks,  G. K. L. Chan,  C. J. Cramer,  M. S. Gordon,  
 W. J. Hehre,  A. Klamt,  M. W. Schmidt,  C. D. Sherrill,  D. G. Truhlar,  
 A. Aspuru-Guzik,  R. Baer,  A. T. Bell,  N. A. Besley,  Jeng-Da Chai,  
 A. E. DePrince, III,  R. A. DiStasio Jr.,  A. Dreuw,  B. D. Dunietz,  
 T. R. Furlani,  Chao-Ping Hsu,  Yousung Jung,  Jing Kong,  D. S. Lambrecht,  
 WanZhen Liang,  C. Ochsenfeld,  V. A. Rassolov,  L. V. Slipchenko,  
 J. E. Subotnik,  T. Van Voorhis,  J. M. Herbert,  A. I. Krylov,  
 P. M. W. Gill,  M. Head-Gordon

 Contributors to earlier versions of Q-Chem not listed above: 
 R. D. Adamson,  B. Austin,  J. Baker,  G. J. O. Beran,  K. Brandhorst,  
 S. T. Brown,  E. F. C. Byrd,  A. K. Chakraborty,  C.-L. Cheng,  
 Siu Hung Chien,  D. M. Chipman,  D. L. Crittenden,  H. Dachsel,  
 R. J. Doerksen,  A. D. Dutoi,  L. Fusti-Molnar,  W. A. Goddard III,  
 A. Golubeva-Zadorozhnaya,  S. R. Gwaltney,  G. Hawkins,  A. Heyden,  
 S. Hirata,  G. Kedziora,  F. J. Keil,  C. Kelley,  Jihan Kim,  R. A. King,  
 R. Z. Khaliullin,  P. P. Korambath,  W. Kurlancheek,  A. M. Lee,  M. S. Lee,  
 S. V. Levchenko,  Ching Yeh Lin,  D. Liotard,  R. C. Lochan,  I. Lotan,  
 P. E. Maslen,  N. Nair,  D. P. O'Neill,  D. Neuhauser,  E. Neuscamman,  
 C. M. Oana,  R. Olson,  B. Peters,  R. Peverati,  P. A. Pieniazek,  
 Y. M. Rhee,  J. Ritchie,  M. A. Rohrdanz,  E. Rosta,  N. J. Russ,  
 H. F. Schaefer III,  N. E. Schultz,  N. Shenvi,  A. C. Simmonett,  A. Sodt,  
 D. Stuck,  K. S. Thanthiriwatte,  V. Vanovschi,  Tao Wang,  A. Warshel,  
 C. F. Williams,  Q. Wu,  X. Xu,  W. Zhang

 Please cite Q-Chem as follows:
 Y. Shao et al., Mol. Phys. 113, 184-215 (2015)
 DOI: 10.1080/00268976.2014.952696

 Q-Chem 5.2.0 for Intel X86 EM64T Linux

 Parts of Q-Chem use Armadillo 8.300.2 (Tropical Shenanigans).
 http://arma.sourceforge.net/

 Q-Chem begins on Wed Jun 12 18:13:44 2019  

n-62-23-20
Host: 0

     Scratch files written to /work1/malop/qc_8407450.hnode2/qchem3017//
NAlpha2: 60
NElect   58
Mult     3

Checking the input file for inconsistencies... 	...done.

--------------------------------------------------------------
User input:
--------------------------------------------------------------

$molecule
0 3
C        0.052842   -1.701332    0.000000
H       -2.016793   -1.512231    0.000000
H       -0.025494   -2.778299    0.000000
H       -0.023568    1.988544    0.000000
C       -1.232948    0.358893    0.000000
O       -2.294123    0.950188    0.000000
C        1.274970    0.391620    0.000000
O        2.275873    1.086244    0.000000
N        0.000000    0.978006    0.000000
N       -1.137535   -1.023018    0.000000
C        1.239239   -1.061325    0.000000
H        2.169983   -1.601520    0.000000
$end

$rem
   JOB_TYPE  =  SP
   BASIS  = general
   print_general_basis = true
   SCF_GUESS read
   mom_start = 1
   METHOD  =  EOM-CCSD
   CVS_IP_STATES = [4,4]
   !eom_davidson_convergence = 4
   cvs_eom_shift = 14500
   n_frozen_core = 4
   cc_trans_prop = true
   cc_memory = 40000
   cc_do_dyson = true
   MOLDEN_FORMAT = TRUE
$end

$basis
H    0
6-311(2+,+)G**
****
O    0
S    1    1.000000
   8.58850000E+03    1.89515000E-03
S    1    1.000000
   1.29723000E+03    1.43859000E-02
S    1    1.000000
   2.99296000E+02    7.07320000E-02
S    1    1.000000
   8.73771000E+01    2.40001000E-01
S    1    1.000000
   2.56789000E+01    5.94797000E-01
S    1    1.000000
   3.74004000E+00    2.80802000E-01
SP   3    1.000000
   4.21175000E+01    1.13889000E-01   3.65114000E-02
   9.62837000E+00    9.20811000E-01   2.37153000E-01
   2.85332000E+00   -3.27447000E-03   8.19702000E-01
SP   1    1.000000
   9.05661000E-01    1.00000000E+00   1.00000000E+00
SP   1    1.000000
   2.55611000E-01    1.00000000E+00   1.00000000E+00
SP   1    1.000000
   8.45000000E-02    1.00000000E+00   1.00000000E+00
SP   1    1.000000
   2.54518072E-02    1.00000000E+00   1.00000000E+00
D    1    1.000000
   1.29200000E+00    1.00000000E+00
****
N    0
S    1    1.000000
   6.29348000E+03    1.96979000E-03
S    1    1.000000
   9.49044000E+02    1.49613000E-02
S    1    1.000000
   2.18776000E+02    7.35006000E-02
S    1    1.000000
   6.36916000E+01    2.48937000E-01
S    1    1.000000
   1.88282000E+01    6.02460000E-01
S    1    1.000000
   2.72023000E+00    2.56202000E-01
SP   3    1.000000
   3.06331000E+01    1.11906000E-01   3.83119000E-02
   7.02614000E+00    9.21666000E-01   2.37403000E-01
   2.11205000E+00   -2.56919000E-03   8.17592000E-01
SP   1    1.000000
   6.84009000E-01    1.00000000E+00   1.00000000E+00
SP   1    1.000000
   2.00878000E-01    1.00000000E+00   1.00000000E+00
SP   1    1.000000
   6.39000000E-02    1.00000000E+00   1.00000000E+00
SP   1    1.000000
   1.92469880E-02    1.00000000E+00   1.00000000E+00
D    1    1.000000
   9.13000000E-01    1.00000000E+00
****
C    0
S    1    1.000000
   4.56324000E+03    1.96665000E-03
S    1    1.000000
   6.82024000E+02    1.52306000E-02
S    1    1.000000
   1.54973000E+02    7.61269000E-02
S    1    1.000000
   4.44553000E+01    2.60801000E-01
S    1    1.000000
   1.30290000E+01    6.16462000E-01
S    1    1.000000
   1.82773000E+00    2.21006000E-01
SP   3    1.000000
   2.09642000E+01    1.14660000E-01   4.02487000E-02
   4.80331000E+00    9.19999000E-01   2.37594000E-01
   1.45933000E+00   -3.03068000E-03   8.15854000E-01
SP   1    1.000000
   4.83456000E-01    1.00000000E+00   1.00000000E+00
SP   1    1.000000
   1.45585000E-01    1.00000000E+00   1.00000000E+00
SP   1    1.000000
   4.38000000E-02    1.00000000E+00   1.00000000E+00
SP   1    1.000000
   1.31927711E-02    1.00000000E+00   1.00000000E+00
D    1    1.000000
   6.26000000E-01    1.00000000E+00
****
$end
--------------------------------------------------------------
 ----------------------------------------------------------------
             Standard Nuclear Orientation (Angstroms)
    I     Atom           X                Y                Z
 ----------------------------------------------------------------
    1      C      -0.0071423615    -1.7021374661    -0.0000000000
    2      H      -2.0688284730    -1.4402241233     0.0000000000
    3      H      -0.1233798667    -2.7756752113     0.0000000000
    4      H       0.0465189185     1.9881394681    -0.0000000000
    5      C      -1.2195356258     0.4021166886     0.0000000000
    6      O      -2.2592155329     1.0304381418     0.0000000000
    7      C       1.2879780632     0.3464493659    -0.0000000000
    8      O       2.3127366072     1.0053721559    -0.0000000000
    9      N       0.0344629504     0.9773985746    -0.0000000000
   10      N      -1.1728776526    -0.9822982369     0.0000000000
   11      C       1.2010703878    -1.1043341925    -0.0000000000
   12      H       2.1122009607    -1.6769912546    -0.0000000000
 ----------------------------------------------------------------
 Molecular Point Group                 Cs    NOp =  2
 Largest Abelian Subgroup              Cs    NOp =  2
 Nuclear Repulsion Energy =         357.01163035 hartrees
 There are       30 alpha and       28 beta electrons
 Requested basis set is non-standard
Basis set in general basis input format:
-----------------------------------------------------------------------
$basis
C    0
S    1    1.000000
   4.56324000E+03    1.96665000E-03 
S    1    1.000000
   6.82024000E+02    1.52306000E-02 
S    1    1.000000
   1.54973000E+02    7.61269000E-02 
S    1    1.000000
   4.44553000E+01    2.60801000E-01 
S    1    1.000000
   1.30290000E+01    6.16462000E-01 
S    1    1.000000
   1.82773000E+00    2.21006000E-01 
SP   3    1.000000
   2.09642000E+01    1.14660000E-01   4.02487000E-02 
   4.80331000E+00    9.19999000E-01   2.37594000E-01 
   1.45933000E+00   -3.03068000E-03   8.15854000E-01 
SP   1    1.000000
   4.83456000E-01    1.00000000E+00   1.00000000E+00 
SP   1    1.000000
   1.45585000E-01    1.00000000E+00   1.00000000E+00 
SP   1    1.000000
   4.38000000E-02    1.00000000E+00   1.00000000E+00 
SP   1    1.000000
   1.31927711E-02    1.00000000E+00   1.00000000E+00 
D    1    1.000000
   6.26000000E-01    1.00000000E+00 
****
H    0
S    3    1.000000
   3.38650000E+01    2.54938000E-02 
   5.09479000E+00    1.90373000E-01 
   1.15879000E+00    8.52161000E-01 
S    1    1.000000
   3.25840000E-01    1.00000000E+00 
S    1    1.000000
   1.02741000E-01    1.00000000E+00 
S    1    1.000000
   3.60000000E-02    1.00000000E+00 
P    1    1.000000
   7.50000000E-01    1.00000000E+00 
****
H    0
S    3    1.000000
   3.38650000E+01    2.54938000E-02 
   5.09479000E+00    1.90373000E-01 
   1.15879000E+00    8.52161000E-01 
S    1    1.000000
   3.25840000E-01    1.00000000E+00 
S    1    1.000000
   1.02741000E-01    1.00000000E+00 
S    1    1.000000
   3.60000000E-02    1.00000000E+00 
P    1    1.000000
   7.50000000E-01    1.00000000E+00 
****
H    0
S    3    1.000000
   3.38650000E+01    2.54938000E-02 
   5.09479000E+00    1.90373000E-01 
   1.15879000E+00    8.52161000E-01 
S    1    1.000000
   3.25840000E-01    1.00000000E+00 
S    1    1.000000
   1.02741000E-01    1.00000000E+00 
S    1    1.000000
   3.60000000E-02    1.00000000E+00 
P    1    1.000000
   7.50000000E-01    1.00000000E+00 
****
C    0
S    1    1.000000
   4.56324000E+03    1.96665000E-03 
S    1    1.000000
   6.82024000E+02    1.52306000E-02 
S    1    1.000000
   1.54973000E+02    7.61269000E-02 
S    1    1.000000
   4.44553000E+01    2.60801000E-01 
S    1    1.000000
   1.30290000E+01    6.16462000E-01 
S    1    1.000000
   1.82773000E+00    2.21006000E-01 
SP   3    1.000000
   2.09642000E+01    1.14660000E-01   4.02487000E-02 
   4.80331000E+00    9.19999000E-01   2.37594000E-01 
   1.45933000E+00   -3.03068000E-03   8.15854000E-01 
SP   1    1.000000
   4.83456000E-01    1.00000000E+00   1.00000000E+00 
SP   1    1.000000
   1.45585000E-01    1.00000000E+00   1.00000000E+00 
SP   1    1.000000
   4.38000000E-02    1.00000000E+00   1.00000000E+00 
SP   1    1.000000
   1.31927711E-02    1.00000000E+00   1.00000000E+00 
D    1    1.000000
   6.26000000E-01    1.00000000E+00 
****
O    0
S    1    1.000000
   8.58850000E+03    1.89515000E-03 
S    1    1.000000
   1.29723000E+03    1.43859000E-02 
S    1    1.000000
   2.99296000E+02    7.07320000E-02 
S    1    1.000000
   8.73771000E+01    2.40001000E-01 
S    1    1.000000
   2.56789000E+01    5.94797000E-01 
S    1    1.000000
   3.74004000E+00    2.80802000E-01 
SP   3    1.000000
   4.21175000E+01    1.13889000E-01   3.65114000E-02 
   9.62837000E+00    9.20811000E-01   2.37153000E-01 
   2.85332000E+00   -3.27447000E-03   8.19702000E-01 
SP   1    1.000000
   9.05661000E-01    1.00000000E+00   1.00000000E+00 
SP   1    1.000000
   2.55611000E-01    1.00000000E+00   1.00000000E+00 
SP   1    1.000000
   8.45000000E-02    1.00000000E+00   1.00000000E+00 
SP   1    1.000000
   2.54518072E-02    1.00000000E+00   1.00000000E+00 
D    1    1.000000
   1.29200000E+00    1.00000000E+00 
****
C    0
S    1    1.000000
   4.56324000E+03    1.96665000E-03 
S    1    1.000000
   6.82024000E+02    1.52306000E-02 
S    1    1.000000
   1.54973000E+02    7.61269000E-02 
S    1    1.000000
   4.44553000E+01    2.60801000E-01 
S    1    1.000000
   1.30290000E+01    6.16462000E-01 
S    1    1.000000
   1.82773000E+00    2.21006000E-01 
SP   3    1.000000
   2.09642000E+01    1.14660000E-01   4.02487000E-02 
   4.80331000E+00    9.19999000E-01   2.37594000E-01 
   1.45933000E+00   -3.03068000E-03   8.15854000E-01 
SP   1    1.000000
   4.83456000E-01    1.00000000E+00   1.00000000E+00 
SP   1    1.000000
   1.45585000E-01    1.00000000E+00   1.00000000E+00 
SP   1    1.000000
   4.38000000E-02    1.00000000E+00   1.00000000E+00 
SP   1    1.000000
   1.31927711E-02    1.00000000E+00   1.00000000E+00 
D    1    1.000000
   6.26000000E-01    1.00000000E+00 
****
O    0
S    1    1.000000
   8.58850000E+03    1.89515000E-03 
S    1    1.000000
   1.29723000E+03    1.43859000E-02 
S    1    1.000000
   2.99296000E+02    7.07320000E-02 
S    1    1.000000
   8.73771000E+01    2.40001000E-01 
S    1    1.000000
   2.56789000E+01    5.94797000E-01 
S    1    1.000000
   3.74004000E+00    2.80802000E-01 
SP   3    1.000000
   4.21175000E+01    1.13889000E-01   3.65114000E-02 
   9.62837000E+00    9.20811000E-01   2.37153000E-01 
   2.85332000E+00   -3.27447000E-03   8.19702000E-01 
SP   1    1.000000
   9.05661000E-01    1.00000000E+00   1.00000000E+00 
SP   1    1.000000
   2.55611000E-01    1.00000000E+00   1.00000000E+00 
SP   1    1.000000
   8.45000000E-02    1.00000000E+00   1.00000000E+00 
SP   1    1.000000
   2.54518072E-02    1.00000000E+00   1.00000000E+00 
D    1    1.000000
   1.29200000E+00    1.00000000E+00 
****
N    0
S    1    1.000000
   6.29348000E+03    1.96979000E-03 
S    1    1.000000
   9.49044000E+02    1.49613000E-02 
S    1    1.000000
   2.18776000E+02    7.35006000E-02 
S    1    1.000000
   6.36916000E+01    2.48937000E-01 
S    1    1.000000
   1.88282000E+01    6.02460000E-01 
S    1    1.000000
   2.72023000E+00    2.56202000E-01 
SP   3    1.000000
   3.06331000E+01    1.11906000E-01   3.83119000E-02 
   7.02614000E+00    9.21666000E-01   2.37403000E-01 
   2.11205000E+00   -2.56919000E-03   8.17592000E-01 
SP   1    1.000000
   6.84009000E-01    1.00000000E+00   1.00000000E+00 
SP   1    1.000000
   2.00878000E-01    1.00000000E+00   1.00000000E+00 
SP   1    1.000000
   6.39000000E-02    1.00000000E+00   1.00000000E+00 
SP   1    1.000000
   1.92469880E-02    1.00000000E+00   1.00000000E+00 
D    1    1.000000
   9.13000000E-01    1.00000000E+00 
****
N    0
S    1    1.000000
   6.29348000E+03    1.96979000E-03 
S    1    1.000000
   9.49044000E+02    1.49613000E-02 
S    1    1.000000
   2.18776000E+02    7.35006000E-02 
S    1    1.000000
   6.36916000E+01    2.48937000E-01 
S    1    1.000000
   1.88282000E+01    6.02460000E-01 
S    1    1.000000
   2.72023000E+00    2.56202000E-01 
SP   3    1.000000
   3.06331000E+01    1.11906000E-01   3.83119000E-02 
   7.02614000E+00    9.21666000E-01   2.37403000E-01 
   2.11205000E+00   -2.56919000E-03   8.17592000E-01 
SP   1    1.000000
   6.84009000E-01    1.00000000E+00   1.00000000E+00 
SP   1    1.000000
   2.00878000E-01    1.00000000E+00   1.00000000E+00 
SP   1    1.000000
   6.39000000E-02    1.00000000E+00   1.00000000E+00 
SP   1    1.000000
   1.92469880E-02    1.00000000E+00   1.00000000E+00 
D    1    1.000000
   9.13000000E-01    1.00000000E+00 
****
C    0
S    1    1.000000
   4.56324000E+03    1.96665000E-03 
S    1    1.000000
   6.82024000E+02    1.52306000E-02 
S    1    1.000000
   1.54973000E+02    7.61269000E-02 
S    1    1.000000
   4.44553000E+01    2.60801000E-01 
S    1    1.000000
   1.30290000E+01    6.16462000E-01 
S    1    1.000000
   1.82773000E+00    2.21006000E-01 
SP   3    1.000000
   2.09642000E+01    1.14660000E-01   4.02487000E-02 
   4.80331000E+00    9.19999000E-01   2.37594000E-01 
   1.45933000E+00   -3.03068000E-03   8.15854000E-01 
SP   1    1.000000
   4.83456000E-01    1.00000000E+00   1.00000000E+00 
SP   1    1.000000
   1.45585000E-01    1.00000000E+00   1.00000000E+00 
SP   1    1.000000
   4.38000000E-02    1.00000000E+00   1.00000000E+00 
SP   1    1.000000
   1.31927711E-02    1.00000000E+00   1.00000000E+00 
D    1    1.000000
   6.26000000E-01    1.00000000E+00 
****
H    0
S    3    1.000000
   3.38650000E+01    2.54938000E-02 
   5.09479000E+00    1.90373000E-01 
   1.15879000E+00    8.52161000E-01 
S    1    1.000000
   3.25840000E-01    1.00000000E+00 
S    1    1.000000
   1.02741000E-01    1.00000000E+00 
S    1    1.000000
   3.60000000E-02    1.00000000E+00 
P    1    1.000000
   7.50000000E-01    1.00000000E+00 
****
$end
-----------------------------------------------------------------------
 There are 116 shells and 276 basis functions
 WARNING: the default MEM_TOTAL is adjusted according to given MEM_STATIC!
 Total memory of 40192 MB is distributed as follows: 
   MEM_STATIC is set to 192 MB
   QALLOC/CCMAN JOB total memory use is  40000 MB
 Warning: actual memory use might exceed 40192 MB

 Total QAlloc Memory Limit  40192 MB
 Mega-Array Size       188 MB
 MEM_STATIC part       192 MB

                       Distance Matrix (Angstroms)
             C (  1)   H (  2)   H (  3)   H (  4)   C (  5)   O (  6)
   H (  2)  2.078256
   H (  3)  1.079812  2.359703
   H (  4)  3.690667  4.028445  4.766843
   C (  5)  2.428535  2.028674  3.361535  2.029375
   O (  6)  3.541017  2.477987  4.364435  2.496718  1.214793
   C (  7)  2.423643  3.802677  3.426309  2.058244  2.508132  3.612537
   O (  8)  3.565452  5.017873  4.497886  2.470136  3.583415  4.572021
   N (  9)  2.679859  3.204487  3.756392  1.010813  1.379660  2.294292
   N ( 10)  1.370076  1.006193  2.077895  3.210986  1.385201  2.287190
   C ( 11)  1.348016  3.287105  2.132498  3.300967  2.851092  4.065813
   H ( 12)  2.119492  4.187728  2.490969  4.207164  3.927233  5.141931
             C (  7)   O (  8)   N (  9)   N ( 10)   C ( 11)
   O (  8)  1.218322
   N (  9)  1.403352  2.278445
   N ( 10)  2.796673  4.012523  2.301756
   C ( 11)  1.453384  2.384672  2.386333  2.377083
   H ( 12)  2.184870  2.689849  3.370872  3.357728  1.076148

 A cutoff of  1.0D-14 yielded   5442 shell pairs
 There are     35779 function pairs (     37954 Cartesian)
 Smallest overlap matrix eigenvalue = 2.79E-07
 Linear dependence detected in AO basis
 Tighter screening thresholds may be required for diffuse basis sets
 Use S2THRESH > 14 and THRESH = 14 in case of SCF convergence issues
 Number of orthogonalized atomic orbitals = 274
 Maximum deviation from orthogonality = 1.629E-10

 Scale SEOQF with 1.000000e-01/1.000000e-01/1.000000e-01

 Standard Electronic Orientation quadrupole field applied
 Nucleus-field energy     =     0.0000000098 hartrees
 Guess MOs from SCF MO coefficient file

 -----------------------------------------------------------------------
  General SCF calculation program by
  Eric Jon Sundstrom, Paul Horn, Yuezhi Mao, Dmitri Zuev, Alec White,
  David Stuck, Shaama M.S., Shane Yost, Joonho Lee, David Small,
  Daniel Levine, Susi Lehtola, Hugh Burton, Evgeny Epifanovsky
 -----------------------------------------------------------------------
 Hartree-Fock
 using 4 threads for integral computing
 -------------------------------------------------------
 OpenMP Integral computing Module                
 Release: version 2.0, May 2017, Q-Chem Inc. Pleasanton 
 -------------------------------------------------------
 A unrestricted SCF calculation will be
 performed using DIIS
 SCF converges when DIIS error is below 1.0e-08
 ---------------------------------------
  Cycle       Energy         DIIS error
 ---------------------------------------
Maximum Overlap Method Active
 MOM overlap:    29.9 / 30
Maximum Overlap Method Active
 MOM overlap:    28.0 / 28
    1    -412.2991602698      8.85e-04  
Maximum Overlap Method Active
 MOM overlap:    29.99 / 30
Maximum Overlap Method Active
 MOM overlap:    28.00 / 28
    2    -412.3540450324      4.49e-04  
Maximum Overlap Method Active
 MOM overlap:    29.99 / 30
Maximum Overlap Method Active
 MOM overlap:    28.00 / 28
    3    -412.3676340990      1.80e-04  
Maximum Overlap Method Active
 MOM overlap:    29.99 / 30
Maximum Overlap Method Active
 MOM overlap:    28.00 / 28
    4    -412.3738586628      1.27e-04  
Maximum Overlap Method Active
 MOM overlap:    30.00 / 30
Maximum Overlap Method Active
 MOM overlap:    28.00 / 28
    5    -412.3773729788      7.09e-05  
Maximum Overlap Method Active
 MOM overlap:    30.00 / 30
Maximum Overlap Method Active
 MOM overlap:    28.00 / 28
    6    -412.3789548907      4.90e-05  
Maximum Overlap Method Active
 MOM overlap:    30.00 / 30
Maximum Overlap Method Active
 MOM overlap:    28.00 / 28
    7    -412.3796826001      3.80e-05  
Maximum Overlap Method Active
 MOM overlap:    30.00 / 30
Maximum Overlap Method Active
 MOM overlap:    28.00 / 28
    8    -412.3803028778      3.11e-05  
Maximum Overlap Method Active
 MOM overlap:    30.00 / 30
Maximum Overlap Method Active
 MOM overlap:    28.00 / 28
    9    -412.3809296523      2.47e-05  
Maximum Overlap Method Active
 MOM overlap:    30.00 / 30
Maximum Overlap Method Active
 MOM overlap:    28.00 / 28
   10    -412.3815422236      1.42e-05  
Maximum Overlap Method Active
 MOM overlap:    30.00 / 30
Maximum Overlap Method Active
 MOM overlap:    28.00 / 28
   11    -412.3817048932      9.07e-06  
Maximum Overlap Method Active
 MOM overlap:    30.00 / 30
Maximum Overlap Method Active
 MOM overlap:    28.00 / 28
   12    -412.3817440671      7.09e-06  
Maximum Overlap Method Active
 MOM overlap:    30.00 / 30
Maximum Overlap Method Active
 MOM overlap:    28.00 / 28
   13    -412.3817774957      6.33e-06  
Maximum Overlap Method Active
 MOM overlap:    30.00 / 30
Maximum Overlap Method Active
 MOM overlap:    28.00 / 28
   14    -412.3818018234      5.81e-06  
Maximum Overlap Method Active
 MOM overlap:    30.00 / 30
Maximum Overlap Method Active
 MOM overlap:    28.00 / 28
   15    -412.3818348211      5.21e-06  
Maximum Overlap Method Active
 MOM overlap:    30.00 / 30
Maximum Overlap Method Active
 MOM overlap:    28.00 / 28
   16    -412.3818719599      4.62e-06  
Maximum Overlap Method Active
 MOM overlap:    30.00 / 30
Maximum Overlap Method Active
 MOM overlap:    28.00 / 28
   17    -412.3818975751      4.12e-06  
Maximum Overlap Method Active
 MOM overlap:    30.00 / 30
Maximum Overlap Method Active
 MOM overlap:    28.00 / 28
   18    -412.3819105062      3.87e-06  
Maximum Overlap Method Active
 MOM overlap:    30.00 / 30
Maximum Overlap Method Active
 MOM overlap:    28.00 / 28
   19    -412.3819310437      3.30e-06  
Maximum Overlap Method Active
 MOM overlap:    30.00 / 30
Maximum Overlap Method Active
 MOM overlap:    28.00 / 28
   20    -412.3819562938      2.36e-06  
Maximum Overlap Method Active
 MOM overlap:    30.00 / 30
Maximum Overlap Method Active
 MOM overlap:    28.00 / 28
   21    -412.3819670569      1.53e-06  
Maximum Overlap Method Active
 MOM overlap:    30.00 / 30
Maximum Overlap Method Active
 MOM overlap:    28.00 / 28
   22    -412.3819710818      9.92e-07  
Maximum Overlap Method Active
 MOM overlap:    30.00 / 30
Maximum Overlap Method Active
 MOM overlap:    28.00 / 28
   23    -412.3819722796      5.07e-07  
Maximum Overlap Method Active
 MOM overlap:    30.00 / 30
Maximum Overlap Method Active
 MOM overlap:    28.00 / 28
   24    -412.3819726111      2.73e-07  
Maximum Overlap Method Active
 MOM overlap:    30.00 / 30
Maximum Overlap Method Active
 MOM overlap:    28.00 / 28
   25    -412.3819726586      1.19e-07  
Maximum Overlap Method Active
 MOM overlap:    30.00 / 30
Maximum Overlap Method Active
 MOM overlap:    28.00 / 28
   26    -412.3819726650      6.45e-08  
Maximum Overlap Method Active
 MOM overlap:    30.00 / 30
Maximum Overlap Method Active
 MOM overlap:    28.00 / 28
   27    -412.3819726686      2.97e-08  
Maximum Overlap Method Active
 MOM overlap:    30.00 / 30
Maximum Overlap Method Active
 MOM overlap:    28.00 / 28
   28    -412.3819726687      1.46e-08  
   29    -412.3819726690      8.17e-09  Convergence criterion met
Maximum Overlap Method Active
 MOM overlap:    30.00 / 30
Maximum Overlap Method Active
 MOM overlap:    28.00 / 28
Maximum Overlap Method Active
 MOM overlap:    30.00 / 30
Maximum Overlap Method Active
 MOM overlap:    28.00 / 28
 ---------------------------------------
 SCF time:   CPU 329.13s  wall 88.00s 
<S^2> =          2.275127068
 SCF   energy in the final basis set =     -412.3819726690
 Total energy in the final basis set =     -412.3819726690


 ------------------------------------------------------------------------------

   CCMAN2: suite of methods based on coupled cluster
           and equation of motion theories.

   Components:
   * libvmm-1.3-trunk
     by Evgeny Epifanovsky, Ilya Kaliman.
   * libtensor-2.5-trunk
     by Evgeny Epifanovsky, Michael Wormit, Dmitry Zuev, Sam Manzer, 
        Ilya Kaliman.
   * libcc-2.5-trunk
     by Evgeny Epifanovsky, Arik Landau, Tomasz Kus, Kirill Khistyaev, 
        Dmitry Zuev, Prashant Manohar, Xintian Feng, Anna Krylov, 
        Matthew Goldey, Alec White, Thomas Jagau, Kaushik Nanda, 
        Anastasia Gunina, Alexander Kunitsa, Joonho Lee.

   CCMAN original authors:
   Anna I. Krylov, C. David Sherrill, Steven R. Gwaltney,
   Edward F. C. Byrd (2000)
   Sergey V. Levchenko, Lyudmila V. Slipchenko, Tao Wang,
   Ana-Maria C. Cristian (2003)
   Piotr A. Pieniazek, C. Melania Oana, Evgeny Epifanovsky (2007)
   Prashant Manohar (2009)

 ------------------------------------------------------------------------------


 Allocating and initializing 40000MB of RAM...
 Calculation will run on 4 cores.


 Alpha MOs, Unrestricted
 -- Occupied --                  
-20.656 -20.653 -15.790 -15.693 -11.494 -11.455 -11.421 -11.386
  1 A'    2 A'    3 A'    4 A'    5 A'    6 A'    7 A'    8 A'                 
 -1.536  -1.508  -1.432  -1.328  -1.210  -1.022  -0.987  -0.908
  9 A'   10 A'   11 A'   12 A'   13 A'   14 A'   15 A'   16 A'                 
 -0.861  -0.788  -0.772  -0.772  -0.749  -0.714  -0.692  -0.689
 17 A'   18 A'   19 A'    1 A"   20 A'   21 A'   22 A'    2 A"                 
 -0.641  -0.581  -0.552  -0.544  -0.523  -0.122
  3 A"   23 A'   24 A'    4 A"    5 A"   25 A'                                 
 -- Virtual --                   
  0.005   0.008   0.009   0.018   0.023   0.025   0.028   0.032
 26 A'    6 A"   27 A'    7 A"   28 A'   29 A'   30 A'    8 A"                 
  0.032   0.038   0.042   0.046   0.048   0.049   0.052   0.055
  9 A"   31 A'   32 A'   33 A'   34 A'   35 A'   10 A"   36 A'                 
  0.060   0.060   0.067   0.072   0.074   0.077   0.080   0.091
 11 A"   37 A'   38 A'   12 A"   39 A'   13 A"   40 A'   41 A'                 
  0.092   0.104   0.105   0.106   0.113   0.117   0.125   0.130
 14 A"   42 A'   15 A"   43 A'   44 A'   45 A'   46 A'   47 A'                 
  0.133   0.139   0.142   0.143   0.160   0.164   0.173   0.178
 48 A'   49 A'   50 A'   16 A"   17 A"   51 A'   52 A'   18 A"                 
  0.190   0.197   0.201   0.213   0.215   0.220   0.230   0.237
 53 A'   54 A'   55 A'   19 A"   56 A'   57 A'   20 A"   58 A'                 
  0.240   0.245   0.249   0.251   0.263   0.274   0.295   0.297
 59 A'   60 A'   21 A"   61 A'   62 A'   63 A'   64 A'   22 A"                 
  0.314   0.324   0.343   0.354   0.359   0.362   0.376   0.379
 65 A'   66 A'   67 A'   23 A"   68 A'   69 A'   24 A"   70 A'                 
  0.382   0.396   0.403   0.413   0.419   0.431   0.439   0.456
 71 A'   72 A'   73 A'   74 A'   75 A'   76 A'   77 A'   78 A'                 
  0.474   0.505   0.506   0.574   0.576   0.586   0.649   0.660
 79 A'   80 A'   81 A'   82 A'   83 A'   84 A'   85 A'   25 A"                 
  0.676   0.696   0.722   0.728   0.731   0.752   0.766   0.823
 86 A'   87 A'   26 A"   88 A'   27 A"   89 A'   28 A"   90 A'                 
  0.836   0.880   0.895   0.900   0.934   0.937   0.952   0.955
 91 A'   92 A'   93 A'   94 A'   95 A'   96 A'   97 A'   29 A"                 
  0.960   0.990   1.032   1.034   1.044   1.088   1.141   1.151
 98 A'   99 A'   30 A"  100 A'  101 A'  102 A'   31 A"   32 A"                 
  1.189   1.204   1.236   1.282   1.306   1.306   1.323   1.349
103 A'  104 A'  105 A'   33 A"  106 A'   34 A"   35 A"   36 A"                 
  1.369   1.390   1.391   1.440   1.440   1.476   1.478   1.513
107 A'   37 A"  108 A'   38 A"  109 A'  110 A'  111 A'  112 A'                 
  1.680   1.696   1.732   1.743   1.806   1.822   1.838   1.865
113 A'  114 A'  115 A'   39 A"  116 A'   40 A"  117 A'   41 A"                 
  1.874   1.909   1.939   1.944   1.994   2.051   2.076   2.118
118 A'  119 A'  120 A'   42 A"  121 A'  122 A'  123 A'  124 A'                 
  2.121   2.163   2.213   2.228   2.244   2.282   2.451   2.479
 43 A"  125 A'  126 A'  127 A'   44 A"  128 A'  129 A'   45 A"                 
  2.510   2.567   2.591   2.635   2.725   2.745   2.768   2.863
130 A'   46 A"  131 A'   47 A"   48 A"  132 A'  133 A'  134 A'                 
  2.883   2.931   2.943   2.984   2.988   3.094   3.111   3.121
135 A'  136 A'  137 A'  138 A'   49 A"   50 A"   51 A"  139 A'                 
  3.128   3.161   3.195   3.195   3.212   3.231   3.235   3.315
140 A'   52 A"  141 A'  142 A'   53 A"  143 A'   54 A"  144 A'                 
  3.440   3.496   3.658   3.664   3.731   3.757   3.791   3.828
145 A'  146 A'   55 A"   56 A"  147 A'  148 A'  149 A'  150 A'                 
  3.875   3.935   3.965   4.024   4.174   4.200   4.292   4.320
151 A'  152 A'  153 A'  154 A'   57 A"  155 A'   58 A"  156 A'                 
  4.402   4.513   4.931   5.072   5.207   5.345   5.472   5.508
157 A'  158 A'  159 A'  160 A'  161 A'  162 A'  163 A'   59 A"                 
  5.519   5.599   5.630   5.686   5.769   5.813   6.347   6.353
 60 A"  164 A'  165 A'  166 A'  167 A'  168 A'  169 A'  170 A'                 
  7.556   7.651   9.786   9.833  20.561  20.615  20.646  20.800
171 A'  172 A'  173 A'  174 A'  175 A'  176 A'  177 A'  178 A'                 
 30.069  30.167  40.793  40.833  80.116  80.155  80.192  80.329
179 A'  180 A'  181 A'  182 A'  183 A'  184 A'  185 A'  186 A'                 
116.190 116.283 159.141 159.173 321.941 321.975 322.013 322.134
187 A'  188 A'  189 A'  190 A'  191 A'  192 A'  193 A'  194 A'                 
460.292 460.379 631.841 631.8671431.4931431.5271431.5651431.671
195 A'  196 A'  197 A'  198 A'  199 A'  200 A'  201 A'  202 A'                 
*******2012.8512759.2382759.2608749.7128749.7488749.7858749.876
203 A'  204 A'  205 A'  206 A'  207 A'  208 A'  209 A'  210 A'                 
*******************************
211 A'  212 A'  213 A'  214 A'                                                 

 Beta MOs, Unrestricted
 -- Occupied --                  
-20.640 -20.639 -15.766 -15.695 -11.500 -11.463 -11.428 -11.369
  1 A'    2 A'    3 A'    4 A'    5 A'    6 A'    7 A'    8 A'                 
 -1.514  -1.475  -1.388  -1.317  -1.165  -1.020  -0.981  -0.889
  9 A'   10 A'   11 A'   12 A'   13 A'   14 A'   15 A'   16 A'                 
 -0.854  -0.783  -0.757  -0.736  -0.726  -0.701  -0.684  -0.612
 17 A'   18 A'   19 A'   20 A'    1 A"   21 A'   22 A'    2 A"                 
 -0.564  -0.555  -0.532  -0.459
 23 A'    3 A"   24 A'    4 A"                                                 
 -- Virtual --                   
 -0.116   0.004   0.013   0.016   0.020   0.028   0.031   0.032
  5 A"   25 A'   26 A'    6 A"   27 A'   28 A'   29 A'    7 A"                 
  0.035   0.035   0.040   0.045   0.047   0.049   0.051   0.054
 30 A'    8 A"    9 A"   31 A'   32 A'   33 A'   34 A'   35 A'                 
  0.056   0.063   0.064   0.067   0.074   0.083   0.086   0.087
 10 A"   36 A'   11 A"   37 A'   38 A'   12 A"   39 A'   40 A'                 
  0.088   0.095   0.100   0.106   0.110   0.117   0.120   0.124
 13 A"   41 A'   14 A"   42 A'   43 A'   44 A'   45 A'   15 A"                 
  0.131   0.135   0.140   0.143   0.155   0.156   0.169   0.174
 46 A'   47 A'   48 A'   49 A'   50 A'   16 A"   51 A'   17 A"                 
  0.182   0.184   0.197   0.206   0.209   0.213   0.220   0.224
 52 A'   18 A"   53 A'   54 A'   55 A'   19 A"   56 A'   57 A'                 
  0.240   0.242   0.248   0.250   0.257   0.259   0.266   0.286
 58 A'   59 A'   60 A'   20 A"   61 A'   21 A"   62 A'   63 A'                 
  0.297   0.313   0.322   0.334   0.344   0.356   0.365   0.377
 64 A'   22 A"   65 A'   66 A'   67 A'   68 A'   69 A'   23 A"                 
  0.385   0.388   0.390   0.394   0.406   0.417   0.422   0.435
 70 A'   71 A'   24 A"   72 A'   73 A'   74 A'   75 A'   76 A'                 
  0.441   0.459   0.476   0.509   0.511   0.575   0.580   0.601
 77 A'   78 A'   79 A'   80 A'   81 A'   82 A'   83 A'   84 A'                 
  0.653   0.680   0.683   0.697   0.707   0.729   0.742   0.758
 85 A'   25 A"   86 A'   87 A'   26 A"   88 A'   27 A"   28 A"                 
  0.760   0.825   0.847   0.882   0.899   0.905   0.936   0.940
 89 A'   90 A'   91 A'   92 A'   93 A'   94 A'   95 A'   96 A'                 
  0.953   0.965   0.997   0.997   1.034   1.044   1.046   1.092
 97 A'   98 A'   99 A'   29 A"  100 A'   30 A"  101 A'  102 A'                 
  1.157   1.163   1.193   1.213   1.238   1.302   1.310   1.336
 31 A"   32 A"  103 A'  104 A'  105 A'   33 A"  106 A'   34 A"                 
  1.353   1.364   1.373   1.397   1.398   1.436   1.446   1.482
 35 A"   36 A"  107 A'   37 A"  108 A'   38 A"  109 A'  110 A'                 
  1.488   1.518   1.685   1.699   1.736   1.748   1.810   1.825
111 A'  112 A'  113 A'  114 A'  115 A'   39 A"  116 A'   40 A"                 
  1.844   1.863   1.877   1.914   1.942   1.948   1.992   2.055
117 A'   41 A"  118 A'  119 A'  120 A'   42 A"  121 A'  122 A'                 
  2.076   2.119   2.140   2.164   2.221   2.231   2.260   2.283
123 A'  124 A'   43 A"  125 A'  126 A'  127 A'   44 A"  128 A'                 
  2.457   2.491   2.516   2.576   2.595   2.655   2.744   2.747
129 A'   45 A"  130 A'   46 A"  131 A'   47 A"   48 A"  132 A'                 
  2.773   2.868   2.897   2.935   2.948   2.988   3.012   3.083
133 A'  134 A'  135 A'  136 A'  137 A'  138 A'   49 A"   50 A"                 
  3.106   3.124   3.139   3.189   3.202   3.226   3.237   3.255
 51 A"  139 A'  140 A'   52 A"  141 A'  142 A'   53 A"  143 A'                 
  3.267   3.327   3.444   3.500   3.685   3.692   3.737   3.760
 54 A"  144 A'  145 A'  146 A'   55 A"   56 A"  147 A'  148 A'                 
  3.796   3.833   3.880   3.938   3.969   4.027   4.208   4.228
149 A'  150 A'  151 A'  152 A'  153 A'  154 A'  155 A'   57 A"                 
  4.293   4.329   4.406   4.518   4.932   5.076   5.212   5.353
 58 A"  156 A'  157 A'  158 A'  159 A'  160 A'  161 A'  162 A'                 
  5.469   5.557   5.563   5.603   5.633   5.695   5.775   5.816
163 A'   59 A"   60 A"  164 A'  165 A'  166 A'  167 A'  168 A'                 
  6.354   6.360   7.577   7.653   9.802   9.848  20.559  20.614
169 A'  170 A'  171 A'  172 A'  173 A'  174 A'  175 A'  176 A'                 
 20.643  20.802  30.081  30.167  40.800  40.841  80.115  80.155
177 A'  178 A'  179 A'  180 A'  181 A'  182 A'  183 A'  184 A'                 
 80.191  80.330 116.195 116.282 159.143 159.175 321.940 321.974
185 A'  186 A'  187 A'  188 A'  189 A'  190 A'  191 A'  192 A'                 
322.013 322.134 460.294 460.379 631.842 631.8681431.4931431.527
193 A'  194 A'  195 A'  196 A'  197 A'  198 A'  199 A'  200 A'                 
*******1431.6712012.7692012.8512759.2382759.2608749.7128749.748
201 A'  202 A'  203 A'  204 A'  205 A'  206 A'  207 A'  208 A'                 
*******8749.876********************************
209 A'  210 A'  211 A'  212 A'  213 A'  214 A'                                 

 Occupation and symmetry of molecular orbitals

 Point group: Cs (2 irreducible representations).

                           A'   A"    All 
 ------------------------------------------
 All molecular orbitals:
  - Alpha                  214  60    274 
  - Beta                   214  60    274 
 ------------------------------------------
 Alpha orbitals:
  - Frozen occupied        4    0     4   
  - Active occupied        21   5     26  
  - Active virtual         189  55    244 
  - Frozen virtual         0    0     0   
 ------------------------------------------
 Beta orbitals:
  - Frozen occupied        4    0     4   
  - Active occupied        20   4     24  
  - Active virtual         190  56    246 
  - Frozen virtual         0    0     0   
 ------------------------------------------

 Import integrals:   CPU 0.00 s  wall 0.00 s

 Import integrals:   CPU 1887.06 s  wall 735.97 s

 MP2 amplitudes:   CPU 3.40 s  wall 1.53 s

Running a double precision version
           CCSD T amplitudes will be solved using DIIS.

           Start     Size      MaxIter   EConv     TConv     
           3         7         100       1.00e-06  1.00e-04  
 ------------------------------------------------------------------------------
           Energy (a.u.)   Ediff      Tdiff       Comment
 ------------------------------------------------------------------------------
          -413.70864769                           
     1    -413.69286173   1.58e-02   9.85e-01     Step took 03.15.
     2    -413.73972264   4.69e-02   1.30e-01     
     3    -413.73895631   7.66e-04   5.46e-02     
     4    -413.74525945   6.30e-03   2.06e-02     Switched to DIIS steps.
     5    -413.75001847   4.76e-03   2.31e-02     
     6    -413.75102798   1.01e-03   7.25e-03     
     7    -413.75138545   3.57e-04   4.76e-03     
     8    -413.75147444   8.90e-05   1.65e-03     
     9    -413.75152786   5.34e-05   1.29e-03     
    10    -413.75152115   6.71e-06   7.18e-04     
    11    -413.75151626   4.89e-06   3.55e-04     
    12    -413.75151671   4.46e-07   2.37e-04     
    13    -413.75151358   3.13e-06   7.39e-05     
    14    -413.75151404   4.57e-07   6.73e-05     
 ------------------------------------------------------------------------------
          -413.75151404                           CCSD T converged.

End of double precision
 SCF energy                 = -412.38197267
 MP2 energy                 = -413.70864769
 CCSD correlation energy    =   -1.36954137
 CCSD total energy          = -413.75151404

 CCSD  T1^2 = 0.0993  T2^2 = 0.4279  Leading amplitudes:

 Amplitude    Orbitals with energies
  0.0806       25 (A') A                 ->    26 (A') A                  
              -0.1222                          0.0048                     
  0.0765       2 (A") A                  ->    13 (A") A                  
              -0.6888                          0.0768                     
  0.0719       25 (A') A                 ->    31 (A') A                  
              -0.1222                          0.0382                     
  0.0656       4 (A") B                  ->    9 (A") B                   
              -0.4593                          0.0401                     

 Amplitude    Orbitals with energies
  0.0258       5 (A") A      4 (A") B    ->    13 (A") A     5 (A") B     
              -0.5233       -0.4593            0.0768       -0.1162       
 -0.0258       5 (A") A      4 (A") B    ->    5 (A") B      13 (A") A    
              -0.5233       -0.4593           -0.1162        0.0768       
 -0.0258       4 (A") B      5 (A") A    ->    13 (A") A     5 (A") B     
              -0.4593       -0.5233            0.0768       -0.1162       
  0.0258       4 (A") B      5 (A") A    ->    5 (A") B      13 (A") A    
              -0.4593       -0.5233           -0.1162        0.0768       

 Computing CCSD intermediates for later calculations in double precision
 Finished.

Running a double precision version
           CCSD Lambda amplitudes will be solved using DIIS.
           Start     Size      MaxIter   EConv     LConv     
           3         7         100       1.00e-06  1.00e-04  
 ------------------------------------------------------------------------------
            Enorm      Ldiff       Comment
 ------------------------------------------------------------------------------
     1     8.26e-02   4.79e-02     
     2     2.64e-02   7.55e-03     
     3     1.33e-02   9.50e-04     
     4     7.06e-03   1.54e-03     Switched to DIIS steps.
     5     2.94e-03   9.41e-04     
     6     1.82e-03   2.01e-04     
     7     9.57e-04   5.74e-05     
     8     5.49e-04   2.62e-05     
     9     2.90e-04   4.62e-05     
    10     1.86e-04   3.11e-05     
    11     1.15e-04   2.45e-05     
    12     6.03e-05   2.09e-05     
    13     3.77e-05   6.14e-06     
    14     2.26e-05   3.94e-06     
    15     1.43e-05   7.57e-07     
    16     1.04e-05   1.76e-08     
    17     6.86e-06   7.12e-09     
    18     4.70e-06   1.69e-07     
    19     2.81e-06   1.30e-08     
    20     1.83e-06   1.53e-08     
    21     1.16e-06   1.79e-08     
    22     7.28e-07   9.31e-09     
 ------------------------------------------------------------------------------
                                   CCSD Lambda converged.

 CCSD calculation:   CPU 16598.09 s  wall 20408.37 s

        Solving for CVS-EOMIP-CCSD A' transitions.

Running a double precision version
      CVS-EOMIP-CCSD/MP2 right amplitudes will be solved using Davidson.
        Amplitudes will be solved using shifted  algorithm.
     Hard-coded thresholds: 
     LinDepThresh=1.00e-15  NormThresh=1.00e-06  ReorthogonThresh=1.00e-02

      Roots     MaxVec    MaxIter   Precond   Conv      Shift    
      4         120       60        1         1.00e-05  1.45e+01  
 ------------------------------------------------------------------------------
      Iter ConvRoots NVecs ResNorm Current eigenvalues (eV)
 ------------------------------------------------------------------------------
      0    0      4     1.70e+00   426.7374   428.9655   561.9826   561.9981   
      1    0      8     4.34e+00   423.4998   425.7980   558.5175   558.5232   
      2    0      12    5.08e+00   409.7700   411.8833   478.5562   480.9111   
      3    0      16    1.01e+00   409.2530   411.2581   466.8425   467.8775   
      4    0      20    1.45e+00   409.2429   411.2125   450.3258   458.4997   
      5    1      24    1.64e-01   409.2410*  411.1986   435.0449   446.2862   
      6    2      27    5.22e-02   409.2410*  411.1974*  429.6417   433.4932   
      7    2      29    2.65e-02   409.2410*  411.1974*  426.5931   427.4451   
      8    2      31    1.44e-02   409.2410*  411.1974*  425.1434   425.9278   
      9    2      33    6.41e-03   409.2410*  411.1974*  424.2742   425.3692   
      10   2      35    4.34e-03   409.2410*  411.1974*  423.7458   425.1619   
      11   2      37    4.43e-03   409.2410*  411.1974*  423.5329   424.7743   
      12   2      39    2.41e-03   409.2410*  411.1974*  423.4542   424.1388   
      13   2      41    1.17e-03   409.2410*  411.1974*  423.4107   423.9103   
      14   2      43    4.38e-04   409.2410*  411.1974*  423.3828   423.8395   
      15   2      45    3.87e-04   409.2410*  411.1974*  423.3696   423.7904   
      16   2      47    1.16e-03   409.2410*  411.1974*  423.3601   423.7100   
      17   2      49    8.44e-03   409.2410*  411.1974*  422.9765   423.3775   
      18   2      51    3.48e-03   409.2410*  411.1974*  421.8633   423.3634   
      19   2      53    7.45e-04   409.2410*  411.1974*  421.5567   423.3608   
      20   2      55    2.68e-04   409.2410*  411.1974*  421.4828   423.3598   
      21   2      57    1.76e-04   409.2410*  411.1974*  421.4469   423.3592   
      22   2      59    9.21e-05   409.2411*  411.1974*  421.4241   423.3585   
      23   2      61    5.47e-05   409.2411*  411.1973*  421.4128   423.3577   
      24   2      63    5.17e-05   409.2411*  411.1973*  421.4068   423.3570   
      25   2      65    7.83e-04   409.2411*  411.1973*  421.4043   423.2088   
      26   2      67    3.04e-04   409.2411*  411.1973*  421.4035   423.1290   
      27   3      69    1.95e-04   409.2411*  411.1973*  421.4032*  423.0949   
      28   3      70    2.26e-04   409.2411*  411.1973*  421.4031*  423.0656   
      29   3      71    3.38e-04   409.2411*  411.1973*  421.4030*  423.0277   
      30   3      72    4.22e-04   409.2411*  411.1973*  421.4029*  422.9761   
      31   3      73    6.39e-04   409.2411*  411.1972*  421.4029*  422.9150   
      32   3      74    4.66e-03   409.2411*  411.1972*  421.4029*  422.8590   
      33   3      75    6.56e+00   388.6407   409.2411*  411.1972*  421.4029*  
Found complex roots...
      34   3      76    1.43e-04   409.2411*  411.1972*  421.4029*  422.8697   
Found complex roots...
      35   3      77    2.81e-04   409.2411*  411.1972*  421.4029*  422.8575   
      36   2      78    4.15e-01   409.2411*  411.1972*  421.4027   422.4398   
Found complex roots...
      37   3      80    1.00e-04   409.2411*  411.1972*  421.4029*  422.8554   
      38   3      81    5.52e-05   409.2411*  411.1972*  421.4028*  422.8506   
      39   3      82    8.98e-04   409.2411*  411.1972*  421.4028*  422.8465   
      40   3      83    3.97e-05   409.2411*  411.1972*  421.4028*  422.8502   
      41   3      84    1.27e-05   409.2411*  411.1972*  421.4028*  422.8492   
      42   3      85    1.18e-04   409.2411*  411.1972*  421.4028*  422.8480   
      43   3      86    2.08e+00   409.2411*  411.1972*  413.6908   421.4028*  
      44   3      87    2.69e-05   409.2411*  411.1972*  421.4028*  422.8476   
      45   3      88    1.60e-04   409.2411*  411.1972*  421.4028*  422.8451   
      46   3      89    2.60e+00   409.2411*  411.1972*  417.7796   421.4028*  
      47   3      90    1.94e-05   409.2411*  411.1972*  421.4028*  422.8453   
      48   3      91    8.32e-05   409.2411*  411.1972*  421.4028*  422.8446   
      49   3      92    6.61e+00   388.9770   409.2411*  411.1972*  421.4028*  
      50   3      93    6.33e-06   409.2411*  411.1972*  421.4028*  422.8448   
      51   3      94    2.72e-05   409.2411*  411.1972*  421.4028*  422.8447   
      52   3      95    8.12e-06   409.2411*  411.1972*  421.4028*  422.8448   
      53   4      96    3.95e-06   409.2411*  411.1972*  421.4028*  422.8447*  

     Davidson procedure converged

 EOMIP transition 1/A'
 Total energy = -398.71218009 a.u.  Excitation energy = 409.2411 eV.
 R1^2 = 0.8986  R2_CCVV^2 = 0.0013  R2_COVV^2 = 0.1008  Res^2 = 7.86e-06
 Conv-d = yes

 Amplitude    Transitions between orbitals
  0.9479       4 (A') A                  ->    infty        
 -0.0001       3 (A') A                  ->    infty        

              Summary of significant orbitals:

               Number  Type             Irrep      Energy
               3       Occ  Alpha       3 (A')    -15.7897
               4       Occ  Alpha       4 (A')    -15.6927


 EOMIP transition 2/A'
 Total energy = -398.64029350 a.u.  Excitation energy = 411.1972 eV.
 R1^2 = 0.8822  R2_CCVV^2 = 0.0013  R2_COVV^2 = 0.1172  Res^2 = 2.74e-06
 Conv-d = yes

 Amplitude    Transitions between orbitals
  0.9392       3 (A') A                  ->    infty        
  0.0001       4 (A') A                  ->    infty        

              Summary of significant orbitals:

               Number  Type             Irrep      Energy
               3       Occ  Alpha       3 (A')    -15.7897
               4       Occ  Alpha       4 (A')    -15.6927


 EOMIP transition 3/A'
 Total energy = -398.26524468 a.u.  Excitation energy = 421.4028 eV.
 R1^2 = 0.0000  R2_CCVV^2 = 0.0000  R2_COVV^2 = 1.0000  Res^2 = 1.02e-07
 Conv-d = yes

 Amplitude    Transitions between orbitals
  0.4436       4 (A') A      25 (A') A   ->    64 (A') A     
 -0.3832       4 (A') A      25 (A') A   ->    49 (A') A     
 -0.3462       4 (A') B      25 (A') A   ->    64 (A') B     
 -0.2933       4 (A') B      25 (A') A   ->    63 (A') B     
  0.2927       4 (A') B      25 (A') A   ->    48 (A') B     
 -0.2522       4 (A') B      25 (A') A   ->    32 (A') B     
 -0.2239       4 (A') A      25 (A') A   ->    34 (A') A     
  0.2156       4 (A') B      25 (A') A   ->    90 (A') B     
  0.2112       4 (A') B      25 (A') A   ->    47 (A') B     
 -0.2108       4 (A') A      25 (A') A   ->    72 (A') A     
 -0.2099       4 (A') A      25 (A') A   ->    90 (A') A     
 -0.2082       4 (A') A      25 (A') A   ->    44 (A') A     
 -0.2030       4 (A') B      25 (A') A   ->    44 (A') B     
 -0.1975       4 (A') B      25 (A') A   ->    80 (A') B     
  0.1926       4 (A') B      25 (A') A   ->    68 (A') B     
 -0.1916       4 (A') B      25 (A') A   ->    72 (A') B     
 -0.1897       4 (A') A      25 (A') A   ->    94 (A') A     
  0.1724       4 (A') A      25 (A') A   ->    68 (A') A     
 -0.1673       4 (A') A      25 (A') A   ->    38 (A') A     
 -0.1627       4 (A') A      25 (A') A   ->    80 (A') A     
 -0.1624       4 (A') B      25 (A') A   ->    94 (A') B     
  0.1623       4 (A') B      25 (A') A   ->    67 (A') B     
  0.1504       4 (A') A      25 (A') A   ->    106 (A') A    
  0.1491       4 (A') A      25 (A') A   ->    63 (A') A     
 -0.1419       4 (A') B      25 (A') A   ->    106 (A') B    
 -0.1362       4 (A') A      25 (A') A   ->    95 (A') A     
 -0.1358       4 (A') B      25 (A') A   ->    37 (A') B     
 -0.1318       4 (A') B      25 (A') A   ->    25 (A') B     
 -0.1305       4 (A') A      25 (A') A   ->    27 (A') A     
  0.1303       4 (A') A      25 (A') A   ->    60 (A') A     
  0.1295       4 (A') A      25 (A') A   ->    26 (A') A     
 -0.1267       4 (A') A      25 (A') A   ->    73 (A') A     
 -0.1254       4 (A') B      25 (A') A   ->    26 (A') B     
 -0.1248       4 (A') B      25 (A') A   ->    60 (A') B     
 -0.1231       4 (A') A      25 (A') A   ->    67 (A') A     
 -0.1188       4 (A') B      25 (A') A   ->    66 (A') B     
  0.1181       4 (A') A      25 (A') A   ->    42 (A') A     
 -0.1113       4 (A') B      25 (A') A   ->    73 (A') B     
  0.1095       4 (A') B      25 (A') A   ->    95 (A') B     
 -0.1092       4 (A') A      25 (A') A   ->    83 (A') A     
 -0.1075       4 (A') B      25 (A') A   ->    104 (A') B    
  0.1074       4 (A') A      25 (A') A   ->    97 (A') A     
 -0.1046       4 (A') B      25 (A') A   ->    97 (A') B     
  0.1044       4 (A') B      25 (A') A   ->    41 (A') B     
  0.1026       4 (A') A      25 (A') A   ->    66 (A') A     
 -0.1020       4 (A') B      25 (A') A   ->    36 (A') B     
 -0.1020       4 (A') A      25 (A') A   ->    81 (A') A     
 -0.1006       4 (A') B      25 (A') A   ->    43 (A') B     
  0.1003       4 (A') B      25 (A') A   ->    93 (A') B     

              Summary of significant orbitals:

               Number  Type             Irrep      Energy
               4       Occ  Alpha       4 (A')    -15.6927
               4       Occ  Beta        4 (A')    -15.6950
               30      Occ  Alpha      25 (A')     -0.1222
               31      Vir  Alpha      26 (A')      0.0048
               33      Vir  Alpha      27 (A')      0.0091
               43      Vir  Alpha      34 (A')      0.0482
               49      Vir  Alpha      38 (A')      0.0673
               56      Vir  Alpha      42 (A')      0.1043
               59      Vir  Alpha      44 (A')      0.1131
               64      Vir  Alpha      49 (A')      0.1392
               80      Vir  Alpha      60 (A')      0.2451
               84      Vir  Alpha      63 (A')      0.2741
               85      Vir  Alpha      64 (A')      0.2946
               88      Vir  Alpha      66 (A')      0.3245
               89      Vir  Alpha      67 (A')      0.3429
               91      Vir  Alpha      68 (A')      0.3587
               96      Vir  Alpha      72 (A')      0.3957
               97      Vir  Alpha      73 (A')      0.4029
               104     Vir  Alpha      80 (A')      0.5048
               105     Vir  Alpha      81 (A')      0.5059
               107     Vir  Alpha      83 (A')      0.5756
               118     Vir  Alpha      90 (A')      0.8229
               122     Vir  Alpha      94 (A')      0.9004
               123     Vir  Alpha      95 (A')      0.9336
[...]
200   0.0000e+00
201   0.0000e+00
202   0.0000e+00
203   0.0000e+00
204   0.0000e+00
205   0.0000e+00
206   0.0000e+00
207   0.0000e+00
208   0.0000e+00
209   0.0000e+00
210   0.0000e+00
211   0.0000e+00
212   0.0000e+00
213   0.0000e+00
214   0.0000e+00
215   0.0000e+00
216   0.0000e+00
217   0.0000e+00
218   0.0000e+00
219   0.0000e+00
220   0.0000e+00
221   0.0000e+00
222   0.0000e+00
223   0.0000e+00
224   0.0000e+00
225   0.0000e+00
226   0.0000e+00
227   0.0000e+00
228   0.0000e+00
229   0.0000e+00
230   0.0000e+00
231   0.0000e+00
232   0.0000e+00
233   0.0000e+00
234   0.0000e+00
235   0.0000e+00
236   0.0000e+00
237   0.0000e+00
238   0.0000e+00
239   0.0000e+00
240   0.0000e+00
241   0.0000e+00
242   0.0000e+00
243   0.0000e+00
244   0.0000e+00
245   0.0000e+00
246   0.0000e+00
247   0.0000e+00
248   0.0000e+00
249   0.0000e+00
250   0.0000e+00
251   0.0000e+00
252   0.0000e+00
253   0.0000e+00
254   0.0000e+00
255   0.0000e+00
256   0.0000e+00
257   0.0000e+00
258   0.0000e+00
259   0.0000e+00
260   0.0000e+00
261   0.0000e+00
262   0.0000e+00
263   0.0000e+00
264   0.0000e+00
265   0.0000e+00
266   0.0000e+00
267   0.0000e+00
268   0.0000e+00
269   0.0000e+00
270   0.0000e+00
271   0.0000e+00
272   0.0000e+00
273   0.0000e+00

Decomposition over AOs for the right alpha Dyson orbital:
0.00000000e+00
0.00000000e+00
0.00000000e+00
0.00000000e+00
0.00000000e+00
0.00000000e+00
0.00000000e+00
0.00000000e+00
0.00000000e+00
0.00000000e+00
0.00000000e+00
0.00000000e+00
0.00000000e+00
0.00000000e+00
0.00000000e+00
0.00000000e+00
0.00000000e+00
0.00000000e+00
0.00000000e+00
0.00000000e+00
0.00000000e+00
0.00000000e+00
0.00000000e+00
0.00000000e+00
0.00000000e+00
0.00000000e+00
0.00000000e+00
0.00000000e+00
0.00000000e+00
0.00000000e+00
0.00000000e+00
0.00000000e+00
0.00000000e+00
0.00000000e+00
0.00000000e+00
0.00000000e+00
0.00000000e+00
0.00000000e+00
0.00000000e+00
0.00000000e+00
0.00000000e+00
0.00000000e+00
0.00000000e+00
0.00000000e+00
0.00000000e+00
0.00000000e+00
0.00000000e+00
0.00000000e+00
0.00000000e+00
0.00000000e+00
0.00000000e+00
0.00000000e+00
0.00000000e+00
0.00000000e+00
0.00000000e+00
0.00000000e+00
0.00000000e+00
0.00000000e+00
0.00000000e+00
0.00000000e+00
0.00000000e+00
0.00000000e+00
0.00000000e+00
0.00000000e+00
0.00000000e+00
0.00000000e+00
0.00000000e+00
0.00000000e+00
0.00000000e+00
0.00000000e+00
0.00000000e+00
0.00000000e+00
0.00000000e+00
0.00000000e+00
0.00000000e+00
0.00000000e+00
0.00000000e+00
0.00000000e+00
0.00000000e+00
0.00000000e+00
0.00000000e+00
0.00000000e+00
0.00000000e+00
0.00000000e+00
0.00000000e+00
0.00000000e+00
0.00000000e+00
0.00000000e+00
0.00000000e+00
0.00000000e+00
0.00000000e+00
0.00000000e+00
0.00000000e+00
0.00000000e+00
0.00000000e+00
0.00000000e+00
0.00000000e+00
0.00000000e+00
0.00000000e+00
0.00000000e+00
0.00000000e+00
0.00000000e+00
0.00000000e+00
0.00000000e+00
0.00000000e+00
0.00000000e+00
0.00000000e+00
0.00000000e+00
0.00000000e+00
0.00000000e+00
0.00000000e+00
0.00000000e+00
0.00000000e+00
0.00000000e+00
0.00000000e+00
0.00000000e+00
0.00000000e+00
0.00000000e+00
0.00000000e+00
0.00000000e+00
0.00000000e+00
0.00000000e+00
0.00000000e+00
0.00000000e+00
0.00000000e+00
0.00000000e+00
0.00000000e+00
0.00000000e+00
0.00000000e+00
0.00000000e+00
0.00000000e+00
0.00000000e+00
0.00000000e+00
0.00000000e+00
0.00000000e+00
0.00000000e+00
0.00000000e+00
0.00000000e+00
0.00000000e+00
0.00000000e+00
0.00000000e+00
0.00000000e+00
0.00000000e+00
0.00000000e+00
0.00000000e+00
0.00000000e+00
0.00000000e+00
0.00000000e+00
0.00000000e+00
0.00000000e+00
0.00000000e+00
0.00000000e+00
0.00000000e+00
0.00000000e+00
0.00000000e+00
0.00000000e+00
0.00000000e+00
0.00000000e+00
0.00000000e+00
0.00000000e+00
0.00000000e+00
0.00000000e+00
0.00000000e+00
0.00000000e+00
0.00000000e+00
0.00000000e+00
0.00000000e+00
0.00000000e+00
0.00000000e+00
0.00000000e+00
0.00000000e+00
0.00000000e+00
0.00000000e+00
0.00000000e+00
0.00000000e+00
0.00000000e+00
0.00000000e+00
0.00000000e+00
0.00000000e+00
0.00000000e+00
0.00000000e+00
0.00000000e+00
0.00000000e+00
0.00000000e+00
0.00000000e+00
0.00000000e+00
0.00000000e+00
0.00000000e+00
0.00000000e+00
0.00000000e+00
0.00000000e+00
0.00000000e+00
0.00000000e+00
0.00000000e+00
0.00000000e+00
0.00000000e+00
0.00000000e+00
0.00000000e+00
0.00000000e+00
0.00000000e+00
0.00000000e+00
0.00000000e+00
0.00000000e+00
0.00000000e+00
0.00000000e+00
0.00000000e+00
0.00000000e+00
0.00000000e+00
0.00000000e+00
0.00000000e+00
0.00000000e+00
0.00000000e+00
0.00000000e+00
0.00000000e+00
0.00000000e+00
0.00000000e+00
0.00000000e+00
0.00000000e+00
0.00000000e+00
0.00000000e+00
0.00000000e+00
0.00000000e+00
0.00000000e+00
0.00000000e+00
0.00000000e+00
0.00000000e+00
0.00000000e+00
0.00000000e+00
0.00000000e+00
0.00000000e+00
0.00000000e+00
0.00000000e+00
0.00000000e+00
0.00000000e+00
0.00000000e+00
0.00000000e+00
0.00000000e+00
0.00000000e+00
0.00000000e+00
0.00000000e+00
0.00000000e+00
0.00000000e+00
0.00000000e+00
0.00000000e+00
0.00000000e+00
0.00000000e+00
0.00000000e+00
0.00000000e+00
0.00000000e+00
0.00000000e+00
0.00000000e+00
0.00000000e+00
0.00000000e+00
0.00000000e+00
0.00000000e+00
0.00000000e+00
0.00000000e+00
0.00000000e+00
0.00000000e+00
0.00000000e+00
0.00000000e+00
0.00000000e+00
0.00000000e+00
0.00000000e+00
0.00000000e+00
0.00000000e+00
0.00000000e+00
0.00000000e+00
0.00000000e+00
0.00000000e+00
0.00000000e+00
0.00000000e+00
0.00000000e+00
0.00000000e+00
0.00000000e+00
0.00000000e+00
   *****

     End transition

 Dyson orbitals calculation:   CPU 0.32 s  wall 0.35 s

 Total ccman2 time:   CPU 19003.67 s  wall 21376.22 s


 --------------------------------------------------------------
             Orbital Energies (a.u.) and Symmetries
 --------------------------------------------------------------

 Alpha MOs, Unrestricted
 -- Occupied --                  
-20.656 -20.653 -15.790 -15.693 -11.494 -11.455 -11.421 -11.386
  1 A'    2 A'    3 A'    4 A'    5 A'    6 A'    7 A'    8 A'                 
 -1.536  -1.508  -1.432  -1.328  -1.210  -1.022  -0.987  -0.908
  9 A'   10 A'   11 A'   12 A'   13 A'   14 A'   15 A'   16 A'                 
 -0.861  -0.788  -0.772  -0.772  -0.749  -0.714  -0.692  -0.689
 17 A'   18 A'   19 A'    1 A"   20 A'   21 A'   22 A'    2 A"                 
 -0.641  -0.581  -0.552  -0.544  -0.523  -0.122
  3 A"   23 A'   24 A'    4 A"    5 A"   25 A'                                 
 -- Virtual --                   
  0.005   0.008   0.009   0.018   0.023   0.025   0.028   0.032
 26 A'    6 A"   27 A'    7 A"   28 A'   29 A'   30 A'    8 A"                 
  0.032   0.038   0.042   0.046   0.048   0.049   0.052   0.055
  9 A"   31 A'   32 A'   33 A'   34 A'   35 A'   10 A"   36 A'                 
  0.060   0.060   0.067   0.072   0.074   0.077   0.080   0.091
 11 A"   37 A'   38 A'   12 A"   39 A'   13 A"   40 A'   41 A'                 
  0.092   0.104   0.105   0.106   0.113   0.117   0.125   0.130
 14 A"   42 A'   15 A"   43 A'   44 A'   45 A'   46 A'   47 A'                 
  0.133   0.139   0.142   0.143   0.160   0.164   0.173   0.178
 48 A'   49 A'   50 A'   16 A"   17 A"   51 A'   52 A'   18 A"                 
  0.190   0.197   0.201   0.213   0.215   0.220   0.230   0.237
 53 A'   54 A'   55 A'   19 A"   56 A'   57 A'   20 A"   58 A'                 
  0.240   0.245   0.249   0.251   0.263   0.274   0.295   0.297
 59 A'   60 A'   21 A"   61 A'   62 A'   63 A'   64 A'   22 A"                 
  0.314   0.324   0.343   0.354   0.359   0.362   0.376   0.379
 65 A'   66 A'   67 A'   23 A"   68 A'   69 A'   24 A"   70 A'                 
  0.382   0.396   0.403   0.413   0.419   0.431   0.439   0.456
 71 A'   72 A'   73 A'   74 A'   75 A'   76 A'   77 A'   78 A'                 
  0.474   0.505   0.506   0.574   0.576   0.586   0.649   0.660
 79 A'   80 A'   81 A'   82 A'   83 A'   84 A'   85 A'   25 A"                 
  0.676   0.696   0.722   0.728   0.731   0.752   0.766   0.823
 86 A'   87 A'   26 A"   88 A'   27 A"   89 A'   28 A"   90 A'                 
  0.836   0.880   0.895   0.900   0.934   0.937   0.952   0.955
 91 A'   92 A'   93 A'   94 A'   95 A'   96 A'   97 A'   29 A"                 
  0.960   0.990   1.032   1.034   1.044   1.088   1.141   1.151
 98 A'   99 A'   30 A"  100 A'  101 A'  102 A'   31 A"   32 A"                 
  1.189   1.204   1.236   1.282   1.306   1.306   1.323   1.349
103 A'  104 A'  105 A'   33 A"  106 A'   34 A"   35 A"   36 A"                 
  1.369   1.390   1.391   1.440   1.440   1.476   1.478   1.513
107 A'   37 A"  108 A'   38 A"  109 A'  110 A'  111 A'  112 A'                 
  1.680   1.696   1.732   1.743   1.806   1.822   1.838   1.865
113 A'  114 A'  115 A'   39 A"  116 A'   40 A"  117 A'   41 A"                 
  1.874   1.909   1.939   1.944   1.994   2.051   2.076   2.118
118 A'  119 A'  120 A'   42 A"  121 A'  122 A'  123 A'  124 A'                 
  2.121   2.163   2.213   2.228   2.244   2.282   2.451   2.479
 43 A"  125 A'  126 A'  127 A'   44 A"  128 A'  129 A'   45 A"                 
  2.510   2.567   2.591   2.635   2.725   2.745   2.768   2.863
130 A'   46 A"  131 A'   47 A"   48 A"  132 A'  133 A'  134 A'                 
  2.883   2.931   2.943   2.984   2.988   3.094   3.111   3.121
135 A'  136 A'  137 A'  138 A'   49 A"   50 A"   51 A"  139 A'                 
  3.128   3.161   3.195   3.195   3.212   3.231   3.235   3.315
140 A'   52 A"  141 A'  142 A'   53 A"  143 A'   54 A"  144 A'                 
  3.440   3.496   3.658   3.664   3.731   3.757   3.791   3.828
145 A'  146 A'   55 A"   56 A"  147 A'  148 A'  149 A'  150 A'                 
  3.875   3.935   3.965   4.024   4.174   4.200   4.292   4.320
151 A'  152 A'  153 A'  154 A'   57 A"  155 A'   58 A"  156 A'                 
  4.402   4.513   4.931   5.072   5.207   5.345   5.472   5.508
157 A'  158 A'  159 A'  160 A'  161 A'  162 A'  163 A'   59 A"                 
  5.519   5.599   5.630   5.686   5.769   5.813   6.347   6.353
 60 A"  164 A'  165 A'  166 A'  167 A'  168 A'  169 A'  170 A'                 
  7.556   7.651   9.786   9.833  20.561  20.615  20.646  20.800
171 A'  172 A'  173 A'  174 A'  175 A'  176 A'  177 A'  178 A'                 
 30.069  30.167  40.793  40.833  80.116  80.155  80.192  80.329
179 A'  180 A'  181 A'  182 A'  183 A'  184 A'  185 A'  186 A'                 
116.190 116.283 159.141 159.173 321.941 321.975 322.013 322.134
187 A'  188 A'  189 A'  190 A'  191 A'  192 A'  193 A'  194 A'                 
460.292 460.379 631.841 631.8671431.4931431.5271431.5651431.671
195 A'  196 A'  197 A'  198 A'  199 A'  200 A'  201 A'  202 A'                 
*******2012.8512759.2382759.2608749.7128749.7488749.7858749.876
203 A'  204 A'  205 A'  206 A'  207 A'  208 A'  209 A'  210 A'                 
*******************************
211 A'  212 A'  213 A'  214 A'                                                 

 Beta MOs, Unrestricted
 -- Occupied --                  
-20.640 -20.639 -15.766 -15.695 -11.500 -11.463 -11.428 -11.369
  1 A'    2 A'    3 A'    4 A'    5 A'    6 A'    7 A'    8 A'                 
 -1.514  -1.475  -1.388  -1.317  -1.165  -1.020  -0.981  -0.889
  9 A'   10 A'   11 A'   12 A'   13 A'   14 A'   15 A'   16 A'                 
 -0.854  -0.783  -0.757  -0.736  -0.726  -0.701  -0.684  -0.612
 17 A'   18 A'   19 A'   20 A'    1 A"   21 A'   22 A'    2 A"                 
 -0.564  -0.555  -0.532  -0.459
 23 A'    3 A"   24 A'    4 A"                                                 
 -- Virtual --                   
 -0.116   0.004   0.013   0.016   0.020   0.028   0.031   0.032
  5 A"   25 A'   26 A'    6 A"   27 A'   28 A'   29 A'    7 A"                 
  0.035   0.035   0.040   0.045   0.047   0.049   0.051   0.054
 30 A'    8 A"    9 A"   31 A'   32 A'   33 A'   34 A'   35 A'                 
  0.056   0.063   0.064   0.067   0.074   0.083   0.086   0.087
 10 A"   36 A'   11 A"   37 A'   38 A'   12 A"   39 A'   40 A'                 
  0.088   0.095   0.100   0.106   0.110   0.117   0.120   0.124
 13 A"   41 A'   14 A"   42 A'   43 A'   44 A'   45 A'   15 A"                 
  0.131   0.135   0.140   0.143   0.155   0.156   0.169   0.174
 46 A'   47 A'   48 A'   49 A'   50 A'   16 A"   51 A'   17 A"                 
  0.182   0.184   0.197   0.206   0.209   0.213   0.220   0.224
 52 A'   18 A"   53 A'   54 A'   55 A'   19 A"   56 A'   57 A'                 
  0.240   0.242   0.248   0.250   0.257   0.259   0.266   0.286
 58 A'   59 A'   60 A'   20 A"   61 A'   21 A"   62 A'   63 A'                 
  0.297   0.313   0.322   0.334   0.344   0.356   0.365   0.377
 64 A'   22 A"   65 A'   66 A'   67 A'   68 A'   69 A'   23 A"                 
  0.385   0.388   0.390   0.394   0.406   0.417   0.422   0.435
 70 A'   71 A'   24 A"   72 A'   73 A'   74 A'   75 A'   76 A'                 
  0.441   0.459   0.476   0.509   0.511   0.575   0.580   0.601
 77 A'   78 A'   79 A'   80 A'   81 A'   82 A'   83 A'   84 A'                 
  0.653   0.680   0.683   0.697   0.707   0.729   0.742   0.758
 85 A'   25 A"   86 A'   87 A'   26 A"   88 A'   27 A"   28 A"                 
  0.760   0.825   0.847   0.882   0.899   0.905   0.936   0.940
 89 A'   90 A'   91 A'   92 A'   93 A'   94 A'   95 A'   96 A'                 
  0.953   0.965   0.997   0.997   1.034   1.044   1.046   1.092
 97 A'   98 A'   99 A'   29 A"  100 A'   30 A"  101 A'  102 A'                 
  1.157   1.163   1.193   1.213   1.238   1.302   1.310   1.336
 31 A"   32 A"  103 A'  104 A'  105 A'   33 A"  106 A'   34 A"                 
  1.353   1.364   1.373   1.397   1.398   1.436   1.446   1.482
 35 A"   36 A"  107 A'   37 A"  108 A'   38 A"  109 A'  110 A'                 
  1.488   1.518   1.685   1.699   1.736   1.748   1.810   1.825
111 A'  112 A'  113 A'  114 A'  115 A'   39 A"  116 A'   40 A"                 
  1.844   1.863   1.877   1.914   1.942   1.948   1.992   2.055
117 A'   41 A"  118 A'  119 A'  120 A'   42 A"  121 A'  122 A'                 
  2.076   2.119   2.140   2.164   2.221   2.231   2.260   2.283
123 A'  124 A'   43 A"  125 A'  126 A'  127 A'   44 A"  128 A'                 
  2.457   2.491   2.516   2.576   2.595   2.655   2.744   2.747
129 A'   45 A"  130 A'   46 A"  131 A'   47 A"   48 A"  132 A'                 
  2.773   2.868   2.897   2.935   2.948   2.988   3.012   3.083
133 A'  134 A'  135 A'  136 A'  137 A'  138 A'   49 A"   50 A"                 
  3.106   3.124   3.139   3.189   3.202   3.226   3.237   3.255
 51 A"  139 A'  140 A'   52 A"  141 A'  142 A'   53 A"  143 A'                 
  3.267   3.327   3.444   3.500   3.685   3.692   3.737   3.760
 54 A"  144 A'  145 A'  146 A'   55 A"   56 A"  147 A'  148 A'                 
  3.796   3.833   3.880   3.938   3.969   4.027   4.208   4.228
149 A'  150 A'  151 A'  152 A'  153 A'  154 A'  155 A'   57 A"                 
  4.293   4.329   4.406   4.518   4.932   5.076   5.212   5.353
 58 A"  156 A'  157 A'  158 A'  159 A'  160 A'  161 A'  162 A'                 
  5.469   5.557   5.563   5.603   5.633   5.695   5.775   5.816
163 A'   59 A"   60 A"  164 A'  165 A'  166 A'  167 A'  168 A'                 
  6.354   6.360   7.577   7.653   9.802   9.848  20.559  20.614
169 A'  170 A'  171 A'  172 A'  173 A'  174 A'  175 A'  176 A'                 
 20.643  20.802  30.081  30.167  40.800  40.841  80.115  80.155
177 A'  178 A'  179 A'  180 A'  181 A'  182 A'  183 A'  184 A'                 
 80.191  80.330 116.195 116.282 159.143 159.175 321.940 321.974
185 A'  186 A'  187 A'  188 A'  189 A'  190 A'  191 A'  192 A'                 
322.013 322.134 460.294 460.379 631.842 631.8681431.4931431.527
193 A'  194 A'  195 A'  196 A'  197 A'  198 A'  199 A'  200 A'                 
*******1431.6712012.7692012.8512759.2382759.2608749.7128749.748
201 A'  202 A'  203 A'  204 A'  205 A'  206 A'  207 A'  208 A'                 
*******8749.876********************************
209 A'  210 A'  211 A'  212 A'  213 A'  214 A'                                 
 --------------------------------------------------------------

          Ground-State Mulliken Net Atomic Charges

     Atom                 Charge (a.u.)    Spin (a.u.)
  --------------------------------------------------------
      1 C                     0.902563      -1.465821
      2 H                    -0.140771       0.583233
      3 H                     0.049460       0.268854
      4 H                     0.393838       0.019684
      5 C                    -0.325509       0.227317
      6 O                     0.175606       0.231597
      7 C                     0.136932      -0.703995
      8 O                     0.098068       0.293691
      9 N                    -0.694172       0.070745
     10 N                     0.078370       0.468462
     11 C                    -0.955446       2.016304
     12 H                     0.281061      -0.010072
  --------------------------------------------------------
  Sum of atomic charges =    -0.000000
  Sum of spin   charges =     2.000000

 -----------------------------------------------------------------
                    Cartesian Multipole Moments
 -----------------------------------------------------------------
    Charge (ESU x 10^10)
                 0.0000
    Dipole Moment (Debye)
         X       5.4424      Y       4.3272      Z      -0.0000
       Tot       6.9530
    Quadrupole Moments (Debye-Ang)
        XX     -73.8572     XY     -17.1302     YY     -73.5432
        XZ       0.0000     YZ       0.0000     ZZ     -60.1106
    Octopole Moments (Debye-Ang^2)
       XXX      73.2018    XXY      37.9591    XYY      62.2871
       YYY     170.3658    XXZ      -0.0000    XYZ      -0.0000
       YYZ      -0.0000    XZZ      21.6110    YZZ      42.8611
       ZZZ      -0.0000
    Hexadecapole Moments (Debye-Ang^3)
      XXXX   -1045.6288   XXXY    -204.0765   XXYY    -405.4691
      XYYY    -250.0447   YYYY   -1166.4535   XXXZ       0.0000
      XXYZ       0.0000   XYYZ       0.0000   YYYZ       0.0000
      XXZZ    -197.7773   XYZZ     -54.2551   YYZZ    -224.6162
      XZZZ       0.0000   YZZZ       0.0000   ZZZZ    -233.1491
 -----------------------------------------------------------------
Archival summary:
1\1\n-62-23-20\SP\ProcedureUnspecified\BasisUnspecified\2244(3)\malop\ThuJun1300:11:512019ThuJun1300:11:512019\0\\#,ProcedureUnspecified,BasisUnspecified,\\0,3\N\H,1,1.01081\C,1,1.37966,2,115.327\O,3,1.21479,1,124.21,2,-0,0\N,3,1.3852,1,112.713,2,-180,0\H,5,1.00619,3,115.142,1,-180,0\C,5,1.37008,3,123.626,1,-0,0\H,7,1.07981,5,115.516,3,-180,0\C,7,1.34802,5,121.979,3,0,0\H,9,1.07615,7,121.525,5,-180,0\C,1,1.40335,2,116.035,3,-180,0\O,11,1.21832,1,120.541,2,-0,0\\HF=-412.381973\\@

 Total job time:  21486.88s(wall), 19354.78s(cpu) 
 Thu Jun 13 00:11:51 2019

======= MOLDEN-FORMATTED INPUT FILE FOLLOWS =======
[Molden Format]
[Atoms] (Angs)
  C      1    6     -0.00714236     -1.70213747     -0.00000000
  H      2    1     -2.06882847     -1.44022412      0.00000000
  H      3    1     -0.12337987     -2.77567521      0.00000000
  H      4    1      0.04651892      1.98813947     -0.00000000
  C      5    6     -1.21953563      0.40211669      0.00000000
  O      6    8     -2.25921553      1.03043814      0.00000000
  C      7    6      1.28797806      0.34644937     -0.00000000
  O      8    8      2.31273661      1.00537216     -0.00000000
  N      9    7      0.03446295      0.97739857     -0.00000000
  N     10    7     -1.17287765     -0.98229824      0.00000000
  C     11    6      1.20107039     -1.10433419     -0.00000000
  H     12    1      2.11220096     -1.67699125     -0.00000000

======= END OF MOLDEN-FORMATTED INPUT FILE =======


        *************************************************************
        *                                                           *
        *  Thank you very much for using Q-Chem.  Have a nice day.  *
        *                                                           *
        *************************************************************


