[Molden Format]
[Atoms] (Angs)
  C      1    6     -0.00754183     -1.75895763      0.00000000
  H      2    1     -2.09769850     -1.41880678     -0.00000000
  H      3    1     -0.13527422     -2.83956838     -0.00000000
  H      4    1      0.04053511      2.02026369      0.00000000
  C      5    6     -1.22066484      0.39918184     -0.00000000
  O      6    8     -2.25210141      1.05663720     -0.00000000
  C      7    6      1.24009552      0.27789184      0.00000000
  O      8    8      2.33767996      1.06122493      0.00000000
  N      9    7      0.03634586      1.00852936      0.00000000
  N     10    7     -1.18738304     -0.97903470     -0.00000000
  C     11    6      1.22288875     -1.12258096      0.00000000
  H     12    1      2.15640383     -1.68445878      0.00000000
[GTO]
1    0
S    1    1.000000
   4.56324000E+03    1.96665000E-03 
S    1    1.000000
   6.82024000E+02    1.52306000E-02 
S    1    1.000000
   1.54973000E+02    7.61269000E-02 
S    1    1.000000
   4.44553000E+01    2.60801000E-01 
S    1    1.000000
   1.30290000E+01    6.16462000E-01 
S    1    1.000000
   1.82773000E+00    2.21006000E-01 
SP   3    1.000000
   2.09642000E+01    1.14660000E-01   4.02487000E-02 
   4.80331000E+00    9.19999000E-01   2.37594000E-01 
   1.45933000E+00   -3.03068000E-03   8.15854000E-01 
SP   1    1.000000
   4.83456000E-01    1.00000000E+00   1.00000000E+00 
SP   1    1.000000
   1.45585000E-01    1.00000000E+00   1.00000000E+00 
SP   1    1.000000
   4.38000000E-02    1.00000000E+00   1.00000000E+00 
SP   1    1.000000
   1.31927711E-02    1.00000000E+00   1.00000000E+00 
D    1    1.000000
   6.26000000E-01    1.00000000E+00 

2    0
S    3    1.000000
   3.38650000E+01    2.54938000E-02 
   5.09479000E+00    1.90373000E-01 
   1.15879000E+00    8.52161000E-01 
S    1    1.000000
   3.25840000E-01    1.00000000E+00 
S    1    1.000000
   1.02741000E-01    1.00000000E+00 
S    1    1.000000
   3.60000000E-02    1.00000000E+00 
P    1    1.000000
   7.50000000E-01    1.00000000E+00 

3    0
S    3    1.000000
   3.38650000E+01    2.54938000E-02 
   5.09479000E+00    1.90373000E-01 
   1.15879000E+00    8.52161000E-01 
S    1    1.000000
   3.25840000E-01    1.00000000E+00 
S    1    1.000000
   1.02741000E-01    1.00000000E+00 
S    1    1.000000
   3.60000000E-02    1.00000000E+00 
P    1    1.000000
   7.50000000E-01    1.00000000E+00 

4    0
S    3    1.000000
   3.38650000E+01    2.54938000E-02 
   5.09479000E+00    1.90373000E-01 
   1.15879000E+00    8.52161000E-01 
S    1    1.000000
   3.25840000E-01    1.00000000E+00 
S    1    1.000000
   1.02741000E-01    1.00000000E+00 
S    1    1.000000
   3.60000000E-02    1.00000000E+00 
P    1    1.000000
   7.50000000E-01    1.00000000E+00 

5    0
S    1    1.000000
   4.56324000E+03    1.96665000E-03 
S    1    1.000000
   6.82024000E+02    1.52306000E-02 
S    1    1.000000
   1.54973000E+02    7.61269000E-02 
S    1    1.000000
   4.44553000E+01    2.60801000E-01 
S    1    1.000000
   1.30290000E+01    6.16462000E-01 
S    1    1.000000
   1.82773000E+00    2.21006000E-01 
SP   3    1.000000
   2.09642000E+01    1.14660000E-01   4.02487000E-02 
   4.80331000E+00    9.19999000E-01   2.37594000E-01 
   1.45933000E+00   -3.03068000E-03   8.15854000E-01 
SP   1    1.000000
   4.83456000E-01    1.00000000E+00   1.00000000E+00 
SP   1    1.000000
   1.45585000E-01    1.00000000E+00   1.00000000E+00 
SP   1    1.000000
   4.38000000E-02    1.00000000E+00   1.00000000E+00 
SP   1    1.000000
   1.31927711E-02    1.00000000E+00   1.00000000E+00 
D    1    1.000000
   6.26000000E-01    1.00000000E+00 

6    0
S    1    1.000000
   8.58850000E+03    1.89515000E-03 
S    1    1.000000
   1.29723000E+03    1.43859000E-02 
S    1    1.000000
   2.99296000E+02    7.07320000E-02 
S    1    1.000000
   8.73771000E+01    2.40001000E-01 
S    1    1.000000
   2.56789000E+01    5.94797000E-01 
S    1    1.000000
   3.74004000E+00    2.80802000E-01 
SP   3    1.000000
   4.21175000E+01    1.13889000E-01   3.65114000E-02 
   9.62837000E+00    9.20811000E-01   2.37153000E-01 
   2.85332000E+00   -3.27447000E-03   8.19702000E-01 
SP   1    1.000000
   9.05661000E-01    1.00000000E+00   1.00000000E+00 
SP   1    1.000000
   2.55611000E-01    1.00000000E+00   1.00000000E+00 
SP   1    1.000000
   8.45000000E-02    1.00000000E+00   1.00000000E+00 
SP   1    1.000000
   2.54518072E-02    1.00000000E+00   1.00000000E+00 
D    1    1.000000
   1.29200000E+00    1.00000000E+00 

7    0
S    1    1.000000
   4.56324000E+03    1.96665000E-03 
S    1    1.000000
   6.82024000E+02    1.52306000E-02 
S    1    1.000000
   1.54973000E+02    7.61269000E-02 
S    1    1.000000
   4.44553000E+01    2.60801000E-01 
S    1    1.000000
   1.30290000E+01    6.16462000E-01 
S    1    1.000000
   1.82773000E+00    2.21006000E-01 
SP   3    1.000000
   2.09642000E+01    1.14660000E-01   4.02487000E-02 
   4.80331000E+00    9.19999000E-01   2.37594000E-01 
   1.45933000E+00   -3.03068000E-03   8.15854000E-01 
SP   1    1.000000
   4.83456000E-01    1.00000000E+00   1.00000000E+00 
SP   1    1.000000
   1.45585000E-01    1.00000000E+00   1.00000000E+00 
SP   1    1.000000
   4.38000000E-02    1.00000000E+00   1.00000000E+00 
SP   1    1.000000
   1.31927711E-02    1.00000000E+00   1.00000000E+00 
D    1    1.000000
   6.26000000E-01    1.00000000E+00 

8    0
S    1    1.000000
   8.58850000E+03    1.89515000E-03 
S    1    1.000000
   1.29723000E+03    1.43859000E-02 
S    1    1.000000
   2.99296000E+02    7.07320000E-02 
S    1    1.000000
   8.73771000E+01    2.40001000E-01 
S    1    1.000000
   2.56789000E+01    5.94797000E-01 
S    1    1.000000
   3.74004000E+00    2.80802000E-01 
SP   3    1.000000
   4.21175000E+01    1.13889000E-01   3.65114000E-02 
   9.62837000E+00    9.20811000E-01   2.37153000E-01 
   2.85332000E+00   -3.27447000E-03   8.19702000E-01 
SP   1    1.000000
   9.05661000E-01    1.00000000E+00   1.00000000E+00 
SP   1    1.000000
   2.55611000E-01    1.00000000E+00   1.00000000E+00 
SP   1    1.000000
   8.45000000E-02    1.00000000E+00   1.00000000E+00 
SP   1    1.000000
   2.54518072E-02    1.00000000E+00   1.00000000E+00 
D    1    1.000000
   1.29200000E+00    1.00000000E+00 

9    0
S    1    1.000000
   6.29348000E+03    1.96979000E-03 
S    1    1.000000
   9.49044000E+02    1.49613000E-02 
S    1    1.000000
   2.18776000E+02    7.35006000E-02 
S    1    1.000000
   6.36916000E+01    2.48937000E-01 
S    1    1.000000
   1.88282000E+01    6.02460000E-01 
S    1    1.000000
   2.72023000E+00    2.56202000E-01 
SP   3    1.000000
   3.06331000E+01    1.11906000E-01   3.83119000E-02 
   7.02614000E+00    9.21666000E-01   2.37403000E-01 
   2.11205000E+00   -2.56919000E-03   8.17592000E-01 
SP   1    1.000000
   6.84009000E-01    1.00000000E+00   1.00000000E+00 
SP   1    1.000000
   2.00878000E-01    1.00000000E+00   1.00000000E+00 
SP   1    1.000000
   6.39000000E-02    1.00000000E+00   1.00000000E+00 
SP   1    1.000000
   1.92469880E-02    1.00000000E+00   1.00000000E+00 
D    1    1.000000
   9.13000000E-01    1.00000000E+00 

10    0
S    1    1.000000
   6.29348000E+03    1.96979000E-03 
S    1    1.000000
   9.49044000E+02    1.49613000E-02 
S    1    1.000000
   2.18776000E+02    7.35006000E-02 
S    1    1.000000
   6.36916000E+01    2.48937000E-01 
S    1    1.000000
   1.88282000E+01    6.02460000E-01 
S    1    1.000000
   2.72023000E+00    2.56202000E-01 
SP   3    1.000000
   3.06331000E+01    1.11906000E-01   3.83119000E-02 
   7.02614000E+00    9.21666000E-01   2.37403000E-01 
   2.11205000E+00   -2.56919000E-03   8.17592000E-01 
SP   1    1.000000
   6.84009000E-01    1.00000000E+00   1.00000000E+00 
SP   1    1.000000
   2.00878000E-01    1.00000000E+00   1.00000000E+00 
SP   1    1.000000
   6.39000000E-02    1.00000000E+00   1.00000000E+00 
SP   1    1.000000
   1.92469880E-02    1.00000000E+00   1.00000000E+00 
D    1    1.000000
   9.13000000E-01    1.00000000E+00 

11    0
S    1    1.000000
   4.56324000E+03    1.96665000E-03 
S    1    1.000000
   6.82024000E+02    1.52306000E-02 
S    1    1.000000
   1.54973000E+02    7.61269000E-02 
S    1    1.000000
   4.44553000E+01    2.60801000E-01 
S    1    1.000000
   1.30290000E+01    6.16462000E-01 
S    1    1.000000
   1.82773000E+00    2.21006000E-01 
SP   3    1.000000
   2.09642000E+01    1.14660000E-01   4.02487000E-02 
   4.80331000E+00    9.19999000E-01   2.37594000E-01 
   1.45933000E+00   -3.03068000E-03   8.15854000E-01 
SP   1    1.000000
   4.83456000E-01    1.00000000E+00   1.00000000E+00 
SP   1    1.000000
   1.45585000E-01    1.00000000E+00   1.00000000E+00 
SP   1    1.000000
   4.38000000E-02    1.00000000E+00   1.00000000E+00 
SP   1    1.000000
   1.31927711E-02    1.00000000E+00   1.00000000E+00 
D    1    1.000000
   6.26000000E-01    1.00000000E+00 

12    0
S    3    1.000000
   3.38650000E+01    2.54938000E-02 
   5.09479000E+00    1.90373000E-01 
   1.15879000E+00    8.52161000E-01 
S    1    1.000000
   3.25840000E-01    1.00000000E+00 
S    1    1.000000
   1.02741000E-01    1.00000000E+00 
S    1    1.000000
   3.60000000E-02    1.00000000E+00 
P    1    1.000000
   7.50000000E-01    1.00000000E+00 

[MO]
Sym=X
Ene=0.922672
Spin=Alpha
Occup=1
    1.11291009e-05
    8.62106308e-05
    0.000429799099
    0.00147742184
    0.00348094429
    0.0013368288
    0.00473605845
    -0.000123388579
    -5.50003977e-05
    1.75764092e-15
    -0.000496041125
    -0.000510461325
    -0.000320494361
    3.09653431e-15
    0.000996734246
    0.00021087442
    0.000706087048
    3.673125e-15
    0.00482618778
    0.000411827048
    0.0020023523
    7.81917767e-15
    0.00040060975
    -7.83891121e-05
    0.000276853562
    -5.87841404e-14
    -0.000286448959
    5.50398582e-16
    4.01821929e-05
    -6.00482598e-16
    -0.000171108132
    -8.26407979e-06
    -4.22350337e-05
    -0.00010812651
    -0.000346423413
    -9.88835635e-06
    1.78102798e-06
    6.30071849e-16
    -1.69705142e-05
    -4.2135152e-05
    0.000451919647
    0.0010068743
    -6.12065936e-05
    -5.58143547e-05
    1.05131676e-15
    -6.74232348e-06
    -7.75331854e-05
    0.00012351861
    -6.1442294e-05
    -1.03372276e-05
    1.06708812e-05
    -2.72358727e-16
    -6.41842003e-08
    -5.20256678e-07
    -2.42673454e-06
    -8.98688941e-06
    -1.50475331e-05
    1.87749256e-05
    -4.1994418e-05
    4.19982355e-06
    -3.56468764e-06
    -5.64466692e-16
    -6.85193177e-05
    -1.39842862e-05
    1.42286432e-05
    2.13458603e-15
    0.00049802639
    0.000472967903
    -0.000274567051
    -4.35107085e-15
    -0.00076779666
    -0.000135572087
    0.000286491365
    4.51341777e-15
    -0.000755134417
    -2.60914353e-05
    6.30408014e-05
    4.44227796e-14
    -6.20083807e-06
    -1.47098484e-15
    -9.44999749e-06
    3.13225822e-16
    8.96106005e-07
    6.92606518e-10
    -4.81849123e-09
    4.90340858e-08
    -1.04883968e-07
    2.40741827e-06
    1.0095826e-05
    -5.89752135e-06
    2.50440811e-06
    -9.11422397e-07
    -2.90670405e-16
    -2.54979313e-05
    -1.35078463e-05
    5.89061046e-06
    -5.34622237e-16
    0.000114425292
    4.89571258e-05
    -2.58552526e-05
    -2.95772604e-16
    0.000551492093
    0.000170925518
    -0.000110832778
    5.3327431e-15
    -0.000241466645
    -8.45284709e-05
    -6.44658623e-05
    -2.02858442e-14
    1.27226801e-06
    4.89111573e-17
    -6.55444594e-07
    -9.55423174e-18
    -6.10510848e-07
    5.04312251e-06
    3.90395649e-05
    0.000194895861
    0.000669407611
    0.00158816528
    0.000725991411
    0.00214487576
    2.73222063e-06
    0.000108005321
    1.67441676e-16
    -0.000693684014
    -2.50297807e-05
    0.000791770852
    8.36977209e-16
    0.00084125558
    -0.000378550531
    -0.000909083021
    6.82536733e-16
    0.0038163775
    -0.00121374289
    -0.00124973052
    5.85859758e-15
    0.000733746019
    -5.94303925e-05
    -4.50036642e-06
    -6.66011194e-14
    -3.25482621e-05
    -7.93671784e-16
    9.29570244e-05
    -6.87583837e-17
    0.000400705829
    -5.68597445e-09
    -7.13076154e-08
    -1.51755878e-07
    -1.26559196e-06
    4.36786521e-06
    2.60282726e-05
    -2.19080934e-05
    -1.05158333e-05
    -2.16782802e-05
    1.4553043e-16
    -3.97704784e-05
    3.77315845e-05
    3.13994697e-05
    -2.44883514e-16
    0.000117635981
    -0.000107196617
    -5.62706133e-06
    1.5823502e-15
    0.000641250246
    -6.978425e-05
    -3.45060795e-05
    -3.43616827e-15
    0.00146811296
    -0.000265058137
    -5.15380031e-05
    7.65319648e-15
    -2.33263517e-05
    -2.49721104e-16
    5.4467111e-06
    2.10166707e-20
    1.90440239e-05
    -9.35340919e-09
    -1.16472781e-07
    -2.49899265e-07
    -2.0925578e-06
    6.50291343e-06
    4.15925819e-05
    -3.32460496e-05
    2.22116915e-05
    -1.89800371e-05
    -1.22258498e-16
    -5.06786742e-05
    -8.27342517e-05
    5.68458805e-05
    -8.14547951e-16
    -0.000210011394
    0.00018492241
    0.000219203812
    1.60752039e-15
    -0.00064837113
    0.000200014849
    1.81525307e-06
    1.32357921e-16
    -0.000438311111
    -0.000587572066
    5.25727022e-05
    2.0857268e-15
    4.39313353e-05
    -5.88834877e-16
    6.56728185e-06
    2.08273927e-17
    -3.85890987e-06
    -1.08803217e-08
    -1.21169963e-07
    -3.23102977e-07
    -2.15231257e-06
    4.54298915e-06
    3.37542244e-05
    -2.96972039e-05
    2.30080103e-05
    -1.07192843e-05
    1.43880602e-15
    -3.04447157e-05
    -6.5508996e-05
    3.957702e-05
    2.71491258e-15
    -0.000348897872
    -0.000183637483
    -0.000141821533
    3.98486219e-15
    -0.00118316888
    -0.000490851171
    -0.000281552771
    1.520632e-15
    -0.000507944177
    -0.000165427567
    -9.92715897e-05
    5.3329803e-15
    2.58475157e-05
    -3.55936036e-16
    7.47182446e-06
    1.1046561e-16
    -2.47051447e-05
    -0.00110909452
    -0.0085863802
    -0.0428311636
    -0.147065248
    -0.3473978
    -0.127057278
    -0.464970903
    0.000386272213
    -0.000680417609
    9.22428757e-16
    -0.00184633648
    -0.000193457922
    0.000482754979
    1.72300015e-15
    -0.0018084455
    0.000928011697
    -0.000886840214
    4.19880517e-15
    -0.00747162559
    0.00220107239
    -0.0012833186
    -8.76519003e-15
    -0.000219324468
    -4.63322521e-05
    -0.000229940272
    8.2252074e-14
    -2.41338073e-06
    -3.7325045e-16
    6.60654134e-05
    -6.51516217e-16
    -0.000105122559
    -0.000330936125
    -0.000330774379
    -0.000614891408
    -0.000882123485
    0.000202016724
    -0.000118851439
    3.49989838e-16
Sym=X
Ene=0.914986
Spin=Alpha
Occup=1
    -0.00110952189
    -0.00858947187
    -0.0428483666
    -0.147109654
    -0.347526784
    -0.126335493
    -0.465536972
    0.000708112236
    -0.000911850564
    -1.69203238e-15
    -0.00155472392
    -0.000605696021
    0.000725931453
    -3.05525025e-15
    -0.00108184247
    0.000123087039
    -0.00106233433
    -4.14958449e-15
    -0.00190317331
    0.000318796577
    -0.00154125335
    9.11743423e-15
    0.000225729564
    -0.000102633115
    2.00680403e-06
    -7.28228029e-15
    -0.000277698242
    -4.88253368e-16
    0.000351414626
    -1.15712345e-15
    0.000138211561
    -2.28724998e-05
    -0.000118528334
    0.000185145651
    0.000348858112
    -5.22601569e-05
    -1.83518164e-05
    5.01974251e-16
    -0.000305434017
    -0.000158967632
    -0.000736793099
    -0.000595594541
    -3.06260099e-05
    -0.000153745591
    -9.3515422e-16
    -1.22868543e-05
    2.59853133e-05
    -0.000365246882
    -0.000401931128
    -5.21965823e-06
    3.98333157e-07
    1.67909707e-16
    -2.30150507e-07
    -1.80802928e-06
    -8.83425653e-06
    -3.10237152e-05
    -6.54071844e-05
    1.62855349e-05
    -0.000118803397
    1.92539155e-06
    -1.73056792e-05
    1.6284955e-15
    -0.000107491558
    -4.50651304e-06
    6.06235752e-05
    4.67339107e-15
    -0.000149411756
    0.000833850795
    -0.000468683641
    2.06906171e-15
    -0.000312502503
    0.000309876128
    -0.000803539412
    2.97882736e-14
    -0.000850086278
    -0.000224970974
    -5.85497453e-05
    9.96699743e-15
    1.31714663e-05
    9.9018561e-16
    -7.97631168e-06
    -1.33994291e-15
    3.88217959e-05
    2.6607762e-09
    -9.01317551e-09
    1.67332314e-07
    -2.21491892e-07
    7.14203748e-06
    2.90957076e-05
    -1.6303173e-05
    3.73800174e-06
    -2.23268524e-06
    1.31929948e-15
    -8.03016541e-05
    -2.49121114e-05
    2.80526232e-05
    3.33319407e-15
    0.000388745791
    0.000175548322
    -0.000119681681
    5.02457154e-15
    0.00113675153
    0.000193083253
    -0.000135424199
    9.77259101e-16
    0.00110911387
    0.000260636835
    1.21002169e-05
    -7.65952727e-15
    3.69105592e-07
    -7.39058224e-17
    -6.41404044e-07
    2.09247687e-16
    5.49900606e-06
    1.34640214e-07
    9.96267286e-07
    5.3005739e-06
    1.69455149e-05
    5.2994741e-05
    7.99486835e-05
    2.32396269e-05
    1.87313158e-06
    -2.23722478e-05
    -2.31215885e-15
    -0.000152175258
    7.58156406e-06
    0.000151656025
    -4.84160479e-15
    -9.85109161e-06
    -9.15242697e-05
    -3.50804639e-05
    -4.76828629e-15
    0.000343187455
    -0.000663038863
    -0.000483029726
    -6.48154874e-15
    5.41738151e-05
    -0.00027499355
    0.000112711265
    7.38007052e-15
    -2.79218645e-05
    2.59815703e-16
    -1.98163911e-06
    -8.4410148e-16
    7.10586598e-05
    9.31697084e-10
    2.3992619e-09
    4.61322644e-08
    2.81623609e-08
    1.26986224e-06
    4.40356968e-06
    -2.06773857e-06
    -2.03680083e-06
    -2.9805366e-06
    -1.11377239e-15
    -7.83989511e-06
    1.62753715e-05
    2.23952193e-05
    -3.24959246e-15
    -1.47957223e-05
    -3.94264095e-05
    -2.94445234e-05
    -2.5795896e-15
    0.000370581758
    -8.64931302e-06
    -1.84742253e-05
    -3.88440259e-15
    0.000448733765
    -7.95884699e-05
    3.06058647e-05
    1.78868506e-15
    -3.76533384e-06
    1.30295921e-16
    1.67656589e-06
    -7.26158603e-17
    4.18314796e-06
    -2.82869809e-09
    -5.8010693e-08
    -2.27914403e-08
    -1.08945127e-06
    6.51557797e-06
    3.28264006e-05
    -2.29481811e-05
    1.41665603e-06
    -9.93209875e-06
    7.06633082e-16
    -5.0035857e-05
    -2.41885941e-06
    3.52986627e-05
    -1.11618945e-15
    -0.000197618356
    4.19992335e-05
    0.000121326933
    1.18257714e-15
    -0.000644939115
    -9.05917652e-05
    0.000943530515
    -5.98119975e-15
    -0.00104288638
    8.34050104e-05
    0.000220017306
    -1.5552432e-14
    4.96075403e-07
    -4.57985079e-17
    5.01185817e-06
    -1.12404176e-15
    -4.12036745e-06
    2.82651337e-07
    1.97553771e-06
    1.10564844e-05
    3.26938168e-05
    0.00012543858
    0.000250576681
    5.32310111e-05
    -4.8292316e-05
    2.86020961e-05
    1.25303948e-15
    -0.000521053887
    -0.000637824284
    0.000411618148
    -1.57007536e-15
    -0.00012075118
    -0.00014342718
    -8.41849037e-05
    6.50723038e-15
    0.00113989294
    0.000792550185
    -6.95255249e-05
    -1.7258579e-14
    0.000420405584
    0.000299581844
    0.000123212613
    2.58004404e-15
    0.000314570401
    6.41422514e-16
    0.000111891993
    -7.23277173e-16
    -0.000146431216
    -1.06028998e-05
    -8.19881105e-05
    -0.00040956326
    -0.00140325875
    -0.00333591111
    -0.00120686721
    -0.00435296806
    0.000116891658
    5.05275551e-05
    -2.71955019e-15
    -0.000352761248
    0.000447118407
    0.000241808058
    -5.46016613e-15
    0.00061272956
    -0.000472710505
    0.00012348441
    -4.94105111e-15
    9.8944159e-05
    -0.000291675038
    0.000821874646
    -1.08146385e-14
    0.000554430003
    0.000132068158
    0.000159208228
    -3.62480065e-15
    -0.000230470176
    -8.76492541e-16
    5.07116876e-06
    3.05565444e-16
    -0.000197860586
    -2.65757601e-05
    -7.19207188e-05
    0.000329625505
    0.000474166201
    8.96490199e-05
    7.79850103e-06
    -1.49964158e-15
Sym=X
Ene=0.928819
Spin=Alpha
Occup=1
    2.29151492e-07
    1.75816045e-06
    8.88100844e-06
    3.00737635e-05
    7.58145309e-05
    5.03562312e-05
    8.22793741e-05
    -1.5220431e-05
    7.63462919e-06
    -1.08267584e-15
    -5.69861244e-05
    5.81217144e-05
    -1.43228558e-05
    5.40052465e-16
    0.000587581807
    -5.34980741e-05
    0.000290119321
    -6.57845215e-15
    -0.00262507996
    -0.000387508878
    -0.0010587095
    1.42592645e-14
    -0.000222484964
    0.000227286753
    -6.58002957e-05
    -6.84370785e-15
    4.49931819e-05
    -4.47871144e-16
    -1.7568236e-05
    -1.2027311e-15
    -1.13249071e-06
    -2.95835476e-05
    -6.4692406e-05
    -1.07731527e-05
    -0.000182029744
    -4.49949936e-05
    -3.08672302e-05
    4.50564234e-16
    -1.16356713e-05
    9.38652846e-06
    5.26298928e-05
    -0.00070697005
    7.91907417e-06
    -1.05575292e-05
    -2.35715023e-16
    -2.62945956e-05
    -0.000126843454
    0.000112121644
    0.000159701876
    2.60428024e-07
    5.86432772e-05
    -2.84657446e-16
    -0.00110959268
    -0.00858991128
    -0.0428515337
    -0.147118953
    -0.347569334
    -0.126362967
    -0.465516048
    -0.00102342842
    0.000388354904
    1.05105006e-16
    -0.001650651
    0.00104694857
    -0.000439106949
    7.04720657e-16
    -0.00110702223
    -0.000443001346
    0.000132034672
    8.70562023e-16
    0.000712246847
    0.000404606138
    -0.000602810856
    -6.45706173e-16
    0.000256946752
    -6.79277002e-05
    -0.000118199704
    3.326702e-14
    0.000342118142
    2.33660061e-17
    0.000227374635
    -8.74246095e-16
    -0.000105646513
    3.67152534e-07
    2.71015697e-06
    1.40654504e-05
    4.54251977e-05
    0.000131521627
    0.000165063097
    0.00019895943
    -0.000204604451
    0.000131857428
    6.00263593e-16
    -0.000546259487
    -0.000469683618
    0.000301584113
    1.69260715e-15
    0.000320747752
    0.000249626601
    -0.000150609383
    5.44253902e-17
    -0.00045366981
    -0.000348183707
    0.00022179362
    3.08839738e-15
    0.000163606352
    3.10675001e-05
    -4.4070523e-05
    -4.35789015e-15
    0.00022364519
    -3.226592e-16
    0.00010278994
    1.45434711e-16
    -0.000103910399
    -2.21716106e-06
    -1.71753609e-05
    -8.56048905e-05
    -0.000294162288
    -0.000691023342
    -0.000227455113
    -0.000943277074
    -1.43374195e-05
    5.64195929e-06
    -1.88609902e-15
    -6.14718793e-05
    4.85808061e-05
    -2.92862085e-05
    -4.86899914e-15
    0.000289010386
    -0.000630610701
    -0.00042800863
    -4.26152964e-15
    -0.00376185802
    0.000255720682
    0.000989461286
    1.25924868e-14
    -0.000422979454
    5.71663262e-05
    0.000202958278
    -8.44599061e-14
    2.58632833e-05
    -6.15470024e-17
    -1.15706403e-05
    -2.16994504e-16
    -2.81574492e-05
    2.66520646e-09
    -4.35577194e-10
    1.48153052e-07
    -5.80836902e-08
    5.26687777e-06
    2.0295359e-05
    -1.08374508e-05
    -2.43925872e-06
    -2.10335037e-06
    -9.87554818e-16
    -5.05775012e-05
    2.83817665e-05
    1.20253727e-05
    -2.84110982e-15
    0.000202740077
    -0.000101165749
    -7.10540333e-05
    -3.15748169e-16
    0.000810951679
    -0.000265998469
    -0.000136179615
    -1.24500612e-14
    0.000320427954
    -5.25788617e-05
    -0.000103734597
    1.19847826e-14
    -1.27277215e-06
    2.02287628e-16
    1.00562987e-06
    1.79467494e-16
    -2.89395409e-06
    2.84064698e-07
    2.00809515e-06
    1.10601896e-05
    3.3331463e-05
    0.000121855899
    0.00023706176
    6.56686618e-05
    5.7845452e-05
    3.67251497e-05
    -6.89484828e-16
    -0.000533196773
    0.000652935723
    0.000321750048
    -2.33181183e-15
    -9.63233113e-05
    -9.45038656e-05
    0.000219484975
    4.68803985e-16
    0.000496356912
    -0.000665237901
    -0.000336412741
    -1.55668317e-14
    0.000358135221
    -0.000262578374
    -0.000120405777
    1.64803211e-14
    -0.00025781166
    4.15814152e-16
    0.000115139014
    -2.74853741e-16
    -0.000209039542
    3.05850977e-07
    2.20369048e-06
    1.18099325e-05
    3.67104561e-05
    0.000122659826
    0.000217455442
    9.39526298e-05
    -6.84927753e-06
    -8.75620542e-05
    -8.69694356e-17
    -0.000533136856
    9.2522402e-06
    -0.000688302102
    2.26595435e-15
    -2.06300987e-05
    -0.00016308701
    0.000143240017
    -3.71146274e-15
    -5.5693214e-05
    -9.96372628e-05
    6.4657727e-05
    5.27613005e-15
    -0.0002676499
    4.02206951e-05
    -0.000314359056
    -3.95066078e-14
    1.58542184e-05
    -1.93755439e-16
    9.98814166e-05
    -4.40699889e-16
    0.000310927384
    5.03457124e-08
    3.67007828e-07
    1.99500021e-06
    6.21628052e-06
    2.07826477e-05
    3.27860551e-05
    6.19593633e-06
    -1.07770077e-05
    6.25642789e-06
    -8.92004133e-16
    -4.59902408e-05
    7.01540668e-05
    -4.43592664e-05
    -5.37876036e-15
    -0.000592280446
    0.000340578387
    -0.00022281402
    7.73157933e-16
    0.00532133013
    -0.000751767885
    0.000662444671
    -2.87553096e-14
    0.000295747621
    -9.03281605e-05
    6.49032755e-05
    5.72067903e-14
    -1.32646154e-05
    -1.24330753e-15
    2.42357103e-06
    -2.69557381e-16
    8.66060489e-06
    -1.07355785e-07
    -8.8684959e-05
    -9.59416141e-05
    0.000110962349
    1.67350499e-05
    -9.61416486e-06
    -7.42195109e-16
Sym=X
Ene=0.918165
Spin=Alpha
Occup=1
    -9.402746e-08
    -7.81743981e-07
    -3.50959676e-06
    -1.35671383e-05
    -1.80361844e-05
    4.6440255e-05
    -7.26075639e-05
    1.54271548e-05
    2.18406811e-05
    2.04169939e-16
    -9.03774069e-05
    -8.87490871e-05
    -0.00011436426
    1.28485199e-15
    -0.000116712352
    -1.77759336e-05
    -0.000220187454
    1.6094469e-15
    0.0018186076
    2.89323423e-05
    0.000651913304
    1.43734561e-14
    0.000631124848
    -0.000156495774
    0.00032805289
    -2.44838224e-14
    -6.45309389e-05
    -2.01841893e-16
    1.00249814e-05
    6.54033524e-16
    -7.06902399e-08
    -9.68114491e-06
    4.75773826e-05
    -0.000325576297
    -0.000196620542
    -1.87398199e-06
    9.01682608e-07
    -3.20827832e-17
    7.64160015e-06
    -0.000113846022
    2.88555158e-05
    7.3879626e-05
    -1.43367217e-05
    -1.95515206e-05
    2.89161259e-16
    -3.24818006e-05
    -2.72109343e-05
    -0.000203937858
    -8.19816373e-05
    -1.21483954e-05
    3.83134304e-05
    -5.48094418e-16
    2.23486262e-06
    1.72625171e-05
    8.63926711e-05
    0.000295533598
    0.000708675244
    0.000300499121
    0.000910996789
    2.27643289e-05
    1.61348163e-07
    -1.37526476e-15
    -7.8227782e-05
    -7.39355054e-05
    -2.70407298e-06
    -4.76094451e-15
    0.000147494836
    0.000292938284
    2.16762878e-05
    4.93937335e-16
    -0.000528151602
    -4.27804343e-05
    0.000696017564
    1.50210674e-14
    -0.00212249788
    -0.000254243457
    -9.88762797e-05
    3.76579357e-15
    -1.53561925e-05
    -5.82083205e-16
    1.88247438e-06
    4.39627821e-16
    -4.55198339e-05
    9.11896282e-10
    -4.36965461e-09
    6.03930999e-08
    -1.01792983e-07
    2.69062632e-06
    1.08348863e-05
    -6.21528604e-06
    2.22944268e-06
    -1.02004663e-06
    -1.58840997e-15
    -2.71176809e-05
    -2.18125678e-05
    1.15640826e-06
    -2.36032258e-15
    6.93042187e-05
    3.65572443e-05
    -4.36981615e-05
    -3.7217971e-15
    0.000261132247
    8.34595979e-05
    -7.66536203e-06
    -6.16828073e-15
    -0.00174872319
    -0.000445350787
    -0.000233691937
    -6.27369112e-15
    -2.96785749e-06
    9.4105164e-17
    -1.24344818e-06
    -5.16612737e-16
    -6.68099147e-06
    -0.0011096816
    -0.00859064627
    -0.0428547882
    -0.147126966
    -0.34755648
    -0.126050165
    -0.465767928
    -0.00027800681
    -0.00139120076
    6.77013157e-16
    -0.00159219463
    0.000172280809
    0.00123478587
    -1.67147646e-15
    -0.00193300764
    -0.000139101888
    -0.000961129177
    2.29527223e-15
    0.0022768914
    -0.00115963323
    -0.00317116329
    9.60523751e-15
    0.000909850452
    -0.000268977824
    0.000526237657
    2.65618759e-14
    -9.21349105e-06
    -3.74680895e-16
    0.000293659331
    1.15986793e-16
    0.00035491744
    1.99916025e-07
    1.34609574e-06
    7.95768854e-06
    2.23042246e-05
    0.000101232524
    0.000227546881
    2.47277101e-05
    9.94880054e-05
    7.25054581e-05
    -4.46416888e-16
    -0.000509249701
    0.000565532814
    0.000419362374
    7.00573317e-16
    -0.000100809871
    -0.000107206083
    -1.00922886e-05
    -1.71228219e-15
    0.00196928705
    -0.000402528073
    -0.000209243249
    4.34550868e-16
    0.00559596416
    -0.00116012173
    -0.000260685786
    -1.99779091e-15
    -0.000259701598
    -1.55252249e-16
    0.000135260778
    2.06320539e-16
    -7.54160912e-05
    2.85070796e-07
    2.01058625e-06
    1.11081868e-05
    3.33249823e-05
    0.000122606886
    0.00023430377
    6.44276497e-05
    -5.55689901e-05
    4.32692954e-05
    -1.27352885e-15
    -0.000543331121
    -0.00060095997
    0.00033843314
    -1.07296394e-15
    0.000181199597
    0.000303107218
    4.25399007e-05
    -5.08260945e-15
    0.000835042124
    0.000841182764
    0.000246721514
    -5.66678999e-15
    -0.00100455693
    -0.00275534819
    9.22855623e-06
    -2.58533442e-14
    0.000269954741
    -2.75876452e-16
    8.70166155e-05
    3.77768039e-16
    -0.000146956202
    -3.70348767e-09
    -6.62715258e-08
    -5.1652123e-08
    -1.2334546e-06
    6.52969815e-06
    3.39826729e-05
    -2.40706441e-05
    6.6684371e-06
    4.13257019e-06
    -7.7414999e-17
    -6.95570539e-05
    -2.0035186e-05
    -1.77189366e-05
    -2.20686478e-15
    0.000164947913
    5.83769595e-05
    3.19308057e-05
    4.08683631e-15
    0.000317953125
    -0.000608572227
    5.80040119e-05
    -2.24968526e-14
    -0.000862709714
    0.000166776233
    -0.000320510719
    2.10869453e-14
    2.40198489e-06
    -2.28841165e-16
    5.98071972e-06
    1.95769901e-16
    5.94620628e-06
    -4.66181856e-06