[Molden Format]
[Atoms] (Angs)
  C      1    6     -0.00754183     -1.75895763      0.00000000
  H      2    1     -2.09769850     -1.41880678     -0.00000000
  H      3    1     -0.13527422     -2.83956838     -0.00000000
  H      4    1      0.04053511      2.02026369      0.00000000
  C      5    6     -1.22066484      0.39918184     -0.00000000
  O      6    8     -2.25210141      1.05663720     -0.00000000
  C      7    6      1.24009552      0.27789184      0.00000000
  O      8    8      2.33767996      1.06122493      0.00000000
  N      9    7      0.03634586      1.00852936      0.00000000
  N     10    7     -1.18738304     -0.97903470     -0.00000000
  C     11    6      1.22288875     -1.12258096      0.00000000
  H     12    1      2.15640383     -1.68445878      0.00000000
[GTO]
1    0
S    1    1.000000
   4.56324000E+03    1.96665000E-03 
S    1    1.000000
   6.82024000E+02    1.52306000E-02 
S    1    1.000000
   1.54973000E+02    7.61269000E-02 
S    1    1.000000
   4.44553000E+01    2.60801000E-01 
S    1    1.000000
   1.30290000E+01    6.16462000E-01 
S    1    1.000000
   1.82773000E+00    2.21006000E-01 
SP   3    1.000000
   2.09642000E+01    1.14660000E-01   4.02487000E-02 
   4.80331000E+00    9.19999000E-01   2.37594000E-01 
   1.45933000E+00   -3.03068000E-03   8.15854000E-01 
SP   1    1.000000
   4.83456000E-01    1.00000000E+00   1.00000000E+00 
SP   1    1.000000
   1.45585000E-01    1.00000000E+00   1.00000000E+00 
SP   1    1.000000
   4.38000000E-02    1.00000000E+00   1.00000000E+00 
SP   1    1.000000
   1.31927711E-02    1.00000000E+00   1.00000000E+00 
D    1    1.000000
   6.26000000E-01    1.00000000E+00 

2    0
S    3    1.000000
   3.38650000E+01    2.54938000E-02 
   5.09479000E+00    1.90373000E-01 
   1.15879000E+00    8.52161000E-01 
S    1    1.000000
   3.25840000E-01    1.00000000E+00 
S    1    1.000000
   1.02741000E-01    1.00000000E+00 
S    1    1.000000
   3.60000000E-02    1.00000000E+00 
P    1    1.000000
   7.50000000E-01    1.00000000E+00 

3    0
S    3    1.000000
   3.38650000E+01    2.54938000E-02 
   5.09479000E+00    1.90373000E-01 
   1.15879000E+00    8.52161000E-01 
S    1    1.000000
   3.25840000E-01    1.00000000E+00 
S    1    1.000000
   1.02741000E-01    1.00000000E+00 
S    1    1.000000
   3.60000000E-02    1.00000000E+00 
P    1    1.000000
   7.50000000E-01    1.00000000E+00 

4    0
S    3    1.000000
   3.38650000E+01    2.54938000E-02 
   5.09479000E+00    1.90373000E-01 
   1.15879000E+00    8.52161000E-01 
S    1    1.000000
   3.25840000E-01    1.00000000E+00 
S    1    1.000000
   1.02741000E-01    1.00000000E+00 
S    1    1.000000
   3.60000000E-02    1.00000000E+00 
P    1    1.000000
   7.50000000E-01    1.00000000E+00 

5    0
S    1    1.000000
   4.56324000E+03    1.96665000E-03 
S    1    1.000000
   6.82024000E+02    1.52306000E-02 
S    1    1.000000
   1.54973000E+02    7.61269000E-02 
S    1    1.000000
   4.44553000E+01    2.60801000E-01 
S    1    1.000000
   1.30290000E+01    6.16462000E-01 
S    1    1.000000
   1.82773000E+00    2.21006000E-01 
SP   3    1.000000
   2.09642000E+01    1.14660000E-01   4.02487000E-02 
   4.80331000E+00    9.19999000E-01   2.37594000E-01 
   1.45933000E+00   -3.03068000E-03   8.15854000E-01 
SP   1    1.000000
   4.83456000E-01    1.00000000E+00   1.00000000E+00 
SP   1    1.000000
   1.45585000E-01    1.00000000E+00   1.00000000E+00 
SP   1    1.000000
   4.38000000E-02    1.00000000E+00   1.00000000E+00 
SP   1    1.000000
   1.31927711E-02    1.00000000E+00   1.00000000E+00 
D    1    1.000000
   6.26000000E-01    1.00000000E+00 

6    0
S    1    1.000000
   8.58850000E+03    1.89515000E-03 
S    1    1.000000
   1.29723000E+03    1.43859000E-02 
S    1    1.000000
   2.99296000E+02    7.07320000E-02 
S    1    1.000000
   8.73771000E+01    2.40001000E-01 
S    1    1.000000
   2.56789000E+01    5.94797000E-01 
S    1    1.000000
   3.74004000E+00    2.80802000E-01 
SP   3    1.000000
   4.21175000E+01    1.13889000E-01   3.65114000E-02 
   9.62837000E+00    9.20811000E-01   2.37153000E-01 
   2.85332000E+00   -3.27447000E-03   8.19702000E-01 
SP   1    1.000000
   9.05661000E-01    1.00000000E+00   1.00000000E+00 
SP   1    1.000000
   2.55611000E-01    1.00000000E+00   1.00000000E+00 
SP   1    1.000000
   8.45000000E-02    1.00000000E+00   1.00000000E+00 
SP   1    1.000000
   2.54518072E-02    1.00000000E+00   1.00000000E+00 
D    1    1.000000
   1.29200000E+00    1.00000000E+00 

7    0
S    1    1.000000
   4.56324000E+03    1.96665000E-03 
S    1    1.000000
   6.82024000E+02    1.52306000E-02 
S    1    1.000000
   1.54973000E+02    7.61269000E-02 
S    1    1.000000
   4.44553000E+01    2.60801000E-01 
S    1    1.000000
   1.30290000E+01    6.16462000E-01 
S    1    1.000000
   1.82773000E+00    2.21006000E-01 
SP   3    1.000000
   2.09642000E+01    1.14660000E-01   4.02487000E-02 
   4.80331000E+00    9.19999000E-01   2.37594000E-01 
   1.45933000E+00   -3.03068000E-03   8.15854000E-01 
SP   1    1.000000
   4.83456000E-01    1.00000000E+00   1.00000000E+00 
SP   1    1.000000
   1.45585000E-01    1.00000000E+00   1.00000000E+00 
SP   1    1.000000
   4.38000000E-02    1.00000000E+00   1.00000000E+00 
SP   1    1.000000
   1.31927711E-02    1.00000000E+00   1.00000000E+00 
D    1    1.000000
   6.26000000E-01    1.00000000E+00 

8    0
S    1    1.000000
   8.58850000E+03    1.89515000E-03 
S    1    1.000000
   1.29723000E+03    1.43859000E-02 
S    1    1.000000
   2.99296000E+02    7.07320000E-02 
S    1    1.000000
   8.73771000E+01    2.40001000E-01 
S    1    1.000000
   2.56789000E+01    5.94797000E-01 
S    1    1.000000
   3.74004000E+00    2.80802000E-01 
SP   3    1.000000
   4.21175000E+01    1.13889000E-01   3.65114000E-02 
   9.62837000E+00    9.20811000E-01   2.37153000E-01 
   2.85332000E+00   -3.27447000E-03   8.19702000E-01 
SP   1    1.000000
   9.05661000E-01    1.00000000E+00   1.00000000E+00 
SP   1    1.000000
   2.55611000E-01    1.00000000E+00   1.00000000E+00 
SP   1    1.000000
   8.45000000E-02    1.00000000E+00   1.00000000E+00 
SP   1    1.000000
   2.54518072E-02    1.00000000E+00   1.00000000E+00 
D    1    1.000000
   1.29200000E+00    1.00000000E+00 

9    0
S    1    1.000000
   6.29348000E+03    1.96979000E-03 
S    1    1.000000
   9.49044000E+02    1.49613000E-02 
S    1    1.000000
   2.18776000E+02    7.35006000E-02 
S    1    1.000000
   6.36916000E+01    2.48937000E-01 
S    1    1.000000
   1.88282000E+01    6.02460000E-01 
S    1    1.000000
   2.72023000E+00    2.56202000E-01 
SP   3    1.000000
   3.06331000E+01    1.11906000E-01   3.83119000E-02 
   7.02614000E+00    9.21666000E-01   2.37403000E-01 
   2.11205000E+00   -2.56919000E-03   8.17592000E-01 
SP   1    1.000000
   6.84009000E-01    1.00000000E+00   1.00000000E+00 
SP   1    1.000000
   2.00878000E-01    1.00000000E+00   1.00000000E+00 
SP   1    1.000000
   6.39000000E-02    1.00000000E+00   1.00000000E+00 
SP   1    1.000000
   1.92469880E-02    1.00000000E+00   1.00000000E+00 
D    1    1.000000
   9.13000000E-01    1.00000000E+00 

10    0
S    1    1.000000
   6.29348000E+03    1.96979000E-03 
S    1    1.000000
   9.49044000E+02    1.49613000E-02 
S    1    1.000000
   2.18776000E+02    7.35006000E-02 
S    1    1.000000
   6.36916000E+01    2.48937000E-01 
S    1    1.000000
   1.88282000E+01    6.02460000E-01 
S    1    1.000000
   2.72023000E+00    2.56202000E-01 
SP   3    1.000000
   3.06331000E+01    1.11906000E-01   3.83119000E-02 
   7.02614000E+00    9.21666000E-01   2.37403000E-01 
   2.11205000E+00   -2.56919000E-03   8.17592000E-01 
SP   1    1.000000
   6.84009000E-01    1.00000000E+00   1.00000000E+00 
SP   1    1.000000
   2.00878000E-01    1.00000000E+00   1.00000000E+00 
SP   1    1.000000
   6.39000000E-02    1.00000000E+00   1.00000000E+00 
SP   1    1.000000
   1.92469880E-02    1.00000000E+00   1.00000000E+00 
D    1    1.000000
   9.13000000E-01    1.00000000E+00 

11    0
S    1    1.000000
   4.56324000E+03    1.96665000E-03 
S    1    1.000000
   6.82024000E+02    1.52306000E-02 
S    1    1.000000
   1.54973000E+02    7.61269000E-02 
S    1    1.000000
   4.44553000E+01    2.60801000E-01 
S    1    1.000000
   1.30290000E+01    6.16462000E-01 
S    1    1.000000
   1.82773000E+00    2.21006000E-01 
SP   3    1.000000
   2.09642000E+01    1.14660000E-01   4.02487000E-02 
   4.80331000E+00    9.19999000E-01   2.37594000E-01 
   1.45933000E+00   -3.03068000E-03   8.15854000E-01 
SP   1    1.000000
   4.83456000E-01    1.00000000E+00   1.00000000E+00 
SP   1    1.000000
   1.45585000E-01    1.00000000E+00   1.00000000E+00 
SP   1    1.000000
   4.38000000E-02    1.00000000E+00   1.00000000E+00 
SP   1    1.000000
   1.31927711E-02    1.00000000E+00   1.00000000E+00 
D    1    1.000000
   6.26000000E-01    1.00000000E+00 

12    0
S    3    1.000000
   3.38650000E+01    2.54938000E-02 
   5.09479000E+00    1.90373000E-01 
   1.15879000E+00    8.52161000E-01 
S    1    1.000000
   3.25840000E-01    1.00000000E+00 
S    1    1.000000
   1.02741000E-01    1.00000000E+00 
S    1    1.000000
   3.60000000E-02    1.00000000E+00 
P    1    1.000000
   7.50000000E-01    1.00000000E+00 

[MO]
Sym=X
Ene=0.950444
Spin=Alpha
Occup=1
1    1.10015284e-05
2    8.52230178e-05
3    0.000424872403
4    0.00146050725
5    0.00344098538
6    0.00132230082
7    0.00468253229
8    -0.000123307594
9    -5.51059793e-05
10    1.75744436e-15
11    -0.000496216684
12    -0.000510528414
13    -0.000320407112
14    3.09613956e-15
15    0.000996610935
16    0.000210889387
17    0.000705970672
18    3.67262435e-15
19    0.00482592196
20    0.000411864451
21    0.00200215877
22    7.81970372e-15
23    0.000400616413
24    -7.83969607e-05
25    0.000276843556
26    -5.87841532e-14
27    -0.000286479041
28    5.50350827e-16
29    4.02223523e-05
30    -6.00631462e-16
31    -0.000171092223
32    -8.26623356e-06
33    -4.22499033e-05
34    -0.000108094677
35    -0.000346376212
36    -9.89409742e-06
37    1.7790292e-06
38    6.30128608e-16
39    -1.70058257e-05
40    -4.21497924e-05
41    0.000451833742
42    0.00100680659
43    -6.12096911e-05
44    -5.58313476e-05
45    1.05120091e-15
46    -6.74251358e-06
47    -7.75287267e-05
48    0.000123482732
49    -6.14865277e-05
50    -1.03374361e-05
51    1.06694061e-05
52    -2.72320507e-16
53    -5.93750562e-08
54    -4.83028467e-07
55    -2.24100599e-06
56    -8.34928668e-06
57    -1.35406259e-05
58    1.93259882e-05
59    -3.99785055e-05
60    4.20385238e-06
61    -3.56840137e-06
62    -5.64235792e-16
63    -6.8521744e-05
64    -1.39869946e-05
65    1.42376238e-05
66    2.1352735e-15
67    0.000498009215
68    0.000473056266
69    -0.000274622195
70    -4.35085368e-15
71    -0.000767819293
72    -0.000135537096
73    0.000286379315
74    4.5163728e-15
75    -0.000755165403
76    -2.61088856e-05
77    6.30378569e-05
78    4.44236617e-14
79    -6.20032317e-06
80    -1.47085246e-15
81    -9.45198441e-06
82    3.13061604e-16
83    9.02504281e-07
84    6.98262401e-10
85    -4.77809347e-09
86    4.9250377e-08
87    -1.04217947e-07
88    2.40977015e-06
89    1.00991302e-05
90    -5.89690957e-06
91    2.50567744e-06
92    -9.12234745e-07
93    -2.90470297e-16
94    -2.55038361e-05
95    -1.35079258e-05
96    5.89246191e-06
97    -5.3417082e-16
98    0.00011446635
99    4.89750301e-05
100    -2.58669431e-05
101    -2.95074755e-16
102    0.000551616339
103    0.000170946567
104    -0.000110849077
105    5.33303795e-15
106    -0.000241283756
107    -8.44843047e-05
108    -6.44567378e-05
109    -2.0286505e-14
110    1.27141481e-06
111    4.89010641e-17
112    -6.55935625e-07
113    -9.51422532e-18
114    -6.09201708e-07
115    5.07886115e-06
116    3.93162319e-05
117    0.000196276062
118    0.00067414591
119    0.00159935999
120    0.000730058303
121    0.00215987262
122    2.74143778e-06
123    0.000108047503
124    1.67162218e-16
125    -0.000693649899
126    -2.50347245e-05
127    0.000791748761
128    8.36495977e-16
129    0.000841315282
130    -0.000378553702
131    -0.00090905424
132    6.81932892e-16
133    0.00381635992
134    -0.00121378289
135    -0.00124968831
136    5.85748944e-15
137    0.000733724875
138    -5.94535896e-05
139    -4.5052048e-06
140    -6.66007451e-14
141    -3.25513215e-05
142    -7.93629535e-16
143    9.29473876e-05
144    -6.88581085e-17
145    0.000400702741
146    -5.6364273e-09
147    -7.09255248e-08
148    -1.49922858e-07
149    -1.25921238e-06
150    4.38228415e-06
151    2.60297272e-05
152    -2.18838557e-05
153    -1.05193312e-05
154    -2.16810032e-05
155    1.45421194e-16
156    -3.97544509e-05
157    3.77151545e-05
158    3.1388514e-05
159    -2.45267146e-16
160    0.000117636564
161    -0.000107197248
162    -5.62980441e-06
163    1.58211048e-15
164    0.000641225925
165    -6.9771118e-05
166    -3.4500863e-05
167    -3.43657347e-15
168    0.00146798299
169    -0.000265029716
170    -5.15256326e-05
171    7.6534146e-15
172    -2.33184443e-05
173    -2.49702046e-16
174    5.44254072e-06
175    5.20044566e-21
176    1.90469398e-05
177    -9.0769564e-09
178    -1.14366218e-07
179    -2.3959347e-07
180    -2.05753229e-06
181    6.5871136e-06
182    4.16254685e-05
183    -3.31286817e-05
184    2.22134617e-05
185    -1.89828061e-05
186    -1.22133158e-16
187    -5.06634554e-05
188    -8.2718131e-05
189    5.68376562e-05
190    -8.14631761e-16
191    -0.000210039576
192    0.000184917933
193    0.000219215369
194    1.60781844e-15
195    -0.000648473749
196    0.000199980254
197    1.91710157e-06
198    1.31918197e-16
199    -0.000438399906
200    -0.000587472656
201    5.25981307e-05
202    2.08469119e-15
203    4.39238568e-05
204    -5.88833173e-16
205    6.56455896e-06
206    2.06872802e-17
207    -3.85373109e-06
208    -1.06844263e-08
209    -1.1969693e-07
210    -3.15740472e-07
211    -2.12782834e-06
212    4.60706376e-06
213    3.38025788e-05
214    -2.96205732e-05
215    2.30023285e-05
216    -1.0715718e-05
217    1.43895313e-15
218    -3.04993859e-05
219    -6.55817683e-05
220    3.96279656e-05
221    2.71479283e-15
222    -0.000348916994
223    -0.000183655113
224    -0.000141832869
225    3.9854958e-15
226    -0.0011830475
227    -0.000490739964
228    -0.00028156287
229    1.51934496e-15
230    -0.000507866768
231    -0.00016539871
232    -9.92456376e-05
233    5.33276688e-15
234    2.58835497e-05
235    -3.55854145e-16
236    7.48405659e-06
237    1.10378018e-16
238    -2.47235495e-05
239    -0.0011090956
240    -0.00858638854
241    -0.0428312052
242    -0.147065391
243    -0.347398138
244    -0.127057397
245    -0.464971349
246    0.000386285531
247    -0.000680407049
248    9.22088162e-16
249    -0.00184637519
250    -0.000193405591
251    0.00048278694
252    1.72238666e-15
253    -0.0018083788
254    0.00092796202
255    -0.000886829474
256    4.19818121e-15
257    -0.00747140795
258    0.00220102599
259    -0.00128317538
260    -8.76590656e-15
261    -0.000219284698
262    -4.63194377e-05
263    -0.000229916451
264    8.22513453e-14
265    -2.43945637e-06
266    -3.73353488e-16
267    6.60683041e-05
268    -6.51484596e-16
269    -0.000105150009
270    -0.00033093863
271    -0.0003307806
272    -0.000614859124
273    -0.000882057051
274    0.000202026134
275    -0.000118848349
276    3.49805867e-16
Sym=X
Ene=0.952492
Spin=Alpha
Occup=1
1    -0.00110952063
2    -0.00858946208
3    -0.0428483178
4    -0.147109486
5    -0.347526389
6    -0.126335341
7    -0.465536434
8    0.000708098006
9    -0.000911856903
10    -1.69184848e-15
11    -0.00155478156
12    -0.000605752438
13    0.00072589455
14    -3.05490023e-15
15    -0.00108172042
16    0.00012311021
17    -0.00106224927
18    -4.14925159e-15
19    -0.00190265285
20    0.000318839606
21    -0.00154103571
22    9.11840438e-15
23    0.000225770114
24    -0.000102639251
25    2.03735097e-06
26    -7.28911311e-15
27    -0.000277729638
28    -4.88194837e-16
29    0.000351418995
30    -1.15720806e-15
31    0.000138191845
32    -2.28743549e-05
33    -0.000118534192
34    0.000185133175
35    0.000348816544
36    -5.22619549e-05
37    -1.83520409e-05
38    5.020511e-16
39    -0.000305436144
40    -0.00015897224
41    -0.000736740473
42    -0.000595485591
43    -3.0632807e-05
44    -0.000153752179
45    -9.35039924e-16
46    -1.22878445e-05
47    2.59750742e-05
48    -0.000365230258
49    -0.000401935331
50    -5.22079268e-06
51    4.0009512e-07
52    1.67879046e-16
53    -2.42695739e-07
54    -1.90515076e-06
55    -9.31873692e-06
56    -3.26871169e-05
57    -6.93362927e-05
58    1.48598387e-05
59    -0.000124068199
60    1.91422052e-06
61    -1.73015527e-05
62    1.6284396e-15
63    -0.00010751861
64    -4.49608187e-06
65    6.06211491e-05
66    4.67366723e-15
67    -0.000149366936
68    0.000833898972
69    -0.000468714034
70    2.06858275e-15
71    -0.000312577609
72    0.000309866785
73    -0.000803516981
74    2.97886661e-14
75    -0.000850158528
76    -0.000224972809
77    -5.85433613e-05
78    9.97245831e-15
79    1.31747814e-05
80    9.90022027e-16
81    -7.97477943e-06
82    -1.3399206e-15
83    3.88213932e-05
84    2.65278092e-09
85    -9.07609196e-09
86    1.67040935e-07
87    -2.22542381e-07
88    7.13995963e-06
89    2.90969082e-05
90    -1.63071258e-05
91    3.73596169e-06
92    -2.23132948e-06
93    1.31927948e-15
94    -8.03107508e-05
95    -2.49189305e-05
96    2.80567671e-05
97    3.33317282e-15
98    0.000388762167
99    0.000175556625
100    -0.000119686164
101    5.02454553e-15
102    0.00113680897
103    0.000193098564
104    -0.000135434333
105    9.77957191e-16
106    0.00110909677
107    0.000260629377
108    1.20930945e-05
109    -7.66190178e-15
110    3.71833701e-07
111    -7.39044426e-17
112    -6.40298908e-07
113    2.09250789e-16
114    5.49782743e-06
115    1.39222469e-07
116    1.03174057e-06
117    5.47755185e-06
118    1.7553136e-05
119    5.44309613e-05
120    8.04870287e-05
121    2.51659669e-05
122    1.87428018e-06
123    -2.23548181e-05
124    -2.31216111e-15
125    -0.000152249541
126    7.57871063e-06
127    0.000151741676
128    -4.84156073e-15
129    -9.74484483e-06
130    -9.15745599e-05
131    -3.51860264e-05
132    -4.76825988e-15
133    0.000343570254
134    -0.000663169347
135    -0.000483149562
136    -6.48080213e-15
137    5.42494168e-05
138    -0.000274997465
139    0.000112710613
140    7.37125871e-15
141    -2.79252404e-05
142    2.59728123e-16
143    -1.97219964e-06
144    -8.44112812e-16
145    7.11028059e-05
146    8.94559526e-10
147    2.11392777e-09
148    4.47527371e-08
149    2.33925015e-08
150    1.25881387e-06
151    4.40060562e-06
152    -2.08661734e-06
153    -2.03834694e-06
154    -2.98326602e-06
155    -1.11376564e-15
156    -7.84339802e-06
157    1.62779459e-05
158    2.23974191e-05
159    -3.2496532e-15
160    -1.4779424e-05
161    -3.9439494e-05
162    -2.94459952e-05
163    -2.57940634e-15
164    0.000370657633
165    -8.65908621e-06
166    -1.84790527e-05
167    -3.88493757e-15
168    0.000448884456
169    -7.96151982e-05
170    3.05996307e-05
171    1.78969689e-15
172    -3.76705507e-06
173    1.30270516e-16
174    1.67671011e-06
175    -7.26149002e-17
176    4.18556786e-06
177    -2.96612721e-09
178    -5.90635171e-08
179    -2.79034429e-08
180    -1.10698004e-06
181    6.47485479e-06
182    3.28148727e-05
183    -2.30105526e-05
184    1.41996898e-06
185    -9.93400854e-06
186    7.06617778e-16
187    -5.00463269e-05
188    -2.41859117e-06
189    3.53076352e-05
190    -1.11629854e-15
191    -0.000197644258
192    4.20181935e-05
193    0.000121354314
194    1.18278315e-15
195    -0.000645010336
196    -9.05795883e-05
197    0.000943525056
198    -5.98131837e-15
199    -0.00104292812
200    8.33459211e-05
201    0.000220021459
202    -1.55518428e-14
203    4.971297e-07
204    -4.5858867e-17
205    5.01360491e-06
206    -1.12404388e-15
207    -4.12266153e-06
208    2.79562917e-07
209    1.95201684e-06
210    1.09412787e-05
211    3.2302612e-05
212    0.000124494173
213    0.00025017726
214    5.19118977e-05
215    -4.82908512e-05
216    2.85993433e-05
217    1.2532017e-15
218    -0.000521075069
219    -0.000637830832
220    0.000411615168
221    -1.5697331e-15
222    -0.000120791135
223    -0.000143450769
224    -8.41997436e-05
225    6.50761979e-15
226    0.00113974942
227    0.000792492591
228    -6.95585168e-05
229    -1.72582402e-14
230    0.000420342944
231    0.000299561849
232    0.000123198231
233    2.58017653e-15
234    0.000314573338
235    6.41380787e-16
236    0.000111893903
237    -7.23270292e-16
238    -0.00014643062
239    -1.07295174e-05
240    -8.29683586e-05
241    -0.000414452993
242    -0.00142004818
243    -0.00337557088
244    -0.00122137158
245    -0.00440605131
246    0.000116935568
247    5.0450464e-05
248    -2.71946081e-15
249    -0.000352972683
250    0.000447097571
251    0.000241863229
252    -5.46003852e-15
253    0.000612515579
254    -0.00047260009
255    0.000123380057
256    -4.94057117e-15
257    9.81731662e-05
258    -0.000291433463
259    0.000821740972
260    -1.08159171e-14
261    0.00055440412
262    0.000132060649
263    0.00015918194
264    -3.61459616e-15
265    -0.000230470643
266    -8.76548248e-16
267    5.07902254e-06
268    3.05489028e-16
269    -0.000197873147
270    -2.66134983e-05
271    -7.19593555e-05
272    0.000329553643
273    0.000474068041
274    8.9672216e-05
275    7.78506856e-06
276    -1.49961413e-15
Sym=X
Ene=0.964527
Spin=Alpha
Occup=1
1    2.14742852e-07
2    1.64661495e-06
3    8.32456331e-06
4    2.81633515e-05
5    7.13013172e-05
6    4.87146305e-05
7    7.62339325e-05
8    -1.52108136e-05
9    7.62262648e-06
10    -1.08270808e-15
11    -5.70035493e-05
12    5.81193302e-05
13    -1.43109658e-05
14    5.39964834e-16
15    0.000587567248
16    -5.34975387e-05
17    0.000290106973
18    -6.57854283e-15
19    -0.00262514962
20    -0.000387505885
21    -0.00105874644
22    1.42590137e-14
23    -0.00022249541
24    0.000227289905
25    -6.58072158e-05
26    -6.84329297e-15
27    4.49930546e-05
28    -4.47875516e-16
29    -1.7564017e-05
30    -1.20275253e-15
31    -1.13020101e-06
32    -2.95846884e-05
33    -6.46947251e-05
34    -1.07657748e-05
35    -0.000182020027
36    -4.49958689e-05
37    -3.08676046e-05
38    4.50567713e-16
39    -1.16397445e-05
40    9.38621304e-06
41    5.26185697e-05
42    -0.00070698182
43    7.91930512e-06
44    -1.05591906e-05
45    -2.35737634e-16
46    -2.62951075e-05
47    -0.00012684278
48    0.000112119686
49    0.000159698293
50    2.60593184e-07
51    5.86429842e-05
52    -2.84644403e-16
53    -0.00110959272
54    -0.0085899116
55    -0.0428515354
56    -0.147118959
57    -0.347569348
58    -0.126362972
59    -0.465516066
60    -0.00102342901
61    0.000388354823
62    1.0515476e-16
63    -0.00165065364
64    0.0010469494
65    -0.000439105408
66    7.04857247e-16
67    -0.00110702525
68    -0.000442997874
69    0.000132029036
70    8.7061511e-16
71    0.000712267559
72    0.000404612498
73    -0.000602835147
74    -6.45796696e-16
75    0.000256984304
76    -6.79243768e-05
77    -0.000118200678
78    3.32668321e-14
79    0.000342118682
80    2.33987374e-17
81    0.000227374729
82    -8.74275949e-16
83    -0.000105644896
84    3.65954756e-07
85    2.70104508e-06
86    1.40207739e-05
87    4.52731441e-05
88    0.000131145357
89    0.000164884953
90    0.000198418442
91    -0.000204606254
92    0.000131858516
93    6.00310434e-16
94    -0.000546265693
95    -0.00046968281
96    0.000301584038
97    1.69270571e-15
98    0.000320751395
99    0.000249627539
100    -0.000150609695
101    5.4543821e-17
102    -0.000453664703
103    -0.000348183671
104    0.000221792642
105    3.08854525e-15
106    0.000163648723
107    3.10777328e-05
108    -4.40654644e-05
109    -4.35779719e-15
110    0.000223645207
111    -3.22662026e-16
112    0.000102790098
113    1.45447305e-16
114    -0.000103910157
115    -2.1973395e-06
116    -1.70219124e-05
117    -8.48394003e-05
118    -0.000291534271
119    -0.000684814983
120    -0.000225203023
121    -0.000934958023
122    -1.4332341e-05
123    5.66592349e-06
124    -1.88613833e-15
125    -6.14434698e-05
126    4.85792736e-05
127    -2.93108961e-05
128    -4.8690404e-15
129    0.000289041883
130    -0.00063060974
131    -0.000427988025
132    -4.26162756e-15
133    -0.00376190545
134    0.000255734841
135    0.000989514783
136    1.25921573e-14
137    -0.000422998358
138    5.71682197e-05
139    0.000202950236
140    -8.44602122e-14
141    2.58639711e-05
142    -6.153217e-17
143    -1.15762616e-05
144    -2.17007948e-16
145    -2.81652521e-05
146    2.64813125e-09
147    -5.62418786e-10
148    1.47507387e-07
149    -6.01976122e-08
150    5.26083976e-06
151    2.02893203e-05
152    -1.08440141e-05
153    -2.44108019e-06
154    -2.10458512e-06
155    -9.87563655e-16
156    -5.05685689e-05
157    2.83718693e-05
158    1.20181379e-05
159    -2.84116114e-15
160    0.000202741464
161    -0.000101164191
162    -7.1054455e-05
163    -3.15764865e-16
164    0.000810921128
165    -0.000265991479
166    -0.000136176347
167    -1.24501059e-14
168    0.000320334386
169    -5.2559303e-05
170    -0.000103729883
171    1.19847806e-14
172    -1.26811029e-06
173    2.02293694e-16
174    1.00322689e-06
175    1.79463286e-16
176    -2.89268568e-06
177    2.7958789e-07
178    1.97401103e-06
179    1.08931668e-05
180    3.27645851e-05
181    0.000120484657
182    0.000236470887
183    6.37620569e-05
184    5.78451213e-05
185    3.67254314e-05
186    -6.89452788e-16
187    -0.000533205123
188    0.000652947918
189    0.00032174375
190    -2.33179831e-15
191    -9.63273696e-05
192    -9.45102253e-05
193    0.000219485508
194    4.688947e-16
195    0.000496327384
196    -0.000665254639
197    -0.000336402994
198    -1.55667623e-14
199    0.000358136584
200    -0.000262528479
201    -0.000120402065
202    1.64807312e-14
203    -0.000257816964
204    4.15823815e-16
205    0.000115137342
206    -2.74875423e-16
207    -0.000209036955
208    3.0064326e-07
209    2.16403735e-06
210    1.16156539e-05
211    3.60509603e-05
212    0.0001210657
213    0.000216774113
214    9.17332632e-05
215    -6.85190774e-06
216    -8.75625087e-05
217    -8.69625699e-17
218    -0.000533162514
219    9.24592436e-06
220    -0.000688296556
221    2.26595994e-15
222    -2.06319582e-05
223    -0.000163089724
224    0.000143238834
225    -3.71148641e-15
226    -5.56884498e-05
227    -9.9616658e-05
228    6.46551801e-05
229    5.27635833e-15
230    -0.000267630674
231    4.02220614e-05
232    -0.000314352416
233    -3.95068525e-14
234    1.58578042e-05
235    -1.93740405e-16
236    9.98826722e-05
237    -4.40711322e-16
238    0.000310925479
239    5.55883411e-08
240    4.0759285e-07
241    2.19746565e-06
242    6.91140135e-06
243    2.24252718e-05
244    3.33893129e-05
245    8.39223784e-06
246    -1.07775455e-05
247    6.26305038e-06
248    -8.92061945e-16
249    -4.59859095e-05
250    7.01620488e-05
251    -4.43565526e-05
252    -5.37884424e-15
253    -0.00059226754
254    0.000340571415
255    -0.00022281041
256    7.7303765e-16
257    0.00532147937
258    -0.000751788422
259    0.000662488572
260    -2.87551647e-14
261    0.000295739235
262    -9.03279063e-05
263    6.49095805e-05
264    5.72065951e-14
265    -1.3267405e-05
266    -1.24332028e-15
267    2.42466418e-06
268    -2.69551342e-16
269    8.65595281e-06
270    -1.0584806e-07
271    -8.86835938e-05
272    -9.59374667e-05
273    0.000110979189
274    1.67348548e-05
275    -9.61235011e-06
276    -7.42225328e-16
Sym=X
Ene=0.95703
Spin=Alpha
Occup=1
1    -8.71735575e-08
2    -7.28687085e-07
3    -3.24490836e-06
4    -1.26585055e-05
5    -1.58891296e-05
6    4.72157903e-05
7    -6.97358797e-05
8    1.54305983e-05
9    2.18503552e-05
10    2.04090361e-16
11    -9.03337365e-05
12    -8.87128767e-05
13    -0.000114348273
14    1.28466217e-15
15    -0.000116779825
16    -1.77893989e-05
17    -0.000220231013
18    1.60936265e-15
19    0.00181835225
20    2.89104783e-05
21    0.000651811191
22    1.43726223e-14
23    0.000631101197
24    -0.000156493092
25    0.000328035473
26    -2.4479844e-14
27    -6.45112433e-05
28    -2.01865604e-16
29    1.00202968e-05
30    6.54102358e-16
31    -6.05437055e-08
32    -9.67997008e-06
33    4.75820935e-05
34    -0.000325570024
35    -0.000196596558
36    -1.87219733e-06
37    9.0223393e-07
38    -3.21349214e-17
39    7.64498169e-06
40    -0.000113842375
41    2.88302884e-05
42    7.3829524e-05
43    -1.43326841e-05
44    -1.95466785e-05
45    2.89105085e-16
46    -3.24813485e-05
47    -2.72041204e-05
48    -0.000203946052
49    -8.19784356e-05
50    -1.21477089e-05
51    3.83119477e-05
52    -5.4807394e-16
53    2.25437522e-06
54    1.74135756e-05
55    8.71462279e-05
56    0.000298120774
57    0.000714787022
58    0.000302719378
59    0.000919184217
60    2.27819165e-05
61    1.54815908e-07
62    -1.37524106e-15
63    -7.819422e-05
64    -7.39535174e-05
65    -2.69789452e-06
66    -4.76113113e-15
67    0.000147483828
68    0.000292909982
69    2.1694904e-05
70    4.94193608e-16
71    -0.000528108833
72    -4.27795887e-05
73    0.000696014706
74    1.50205197e-14
75    -0.00212244553
76    -0.000254238926
77    -9.88787889e-05
78    3.76221719e-15
79    -1.5362127e-05
80    -5.81995068e-16
81    1.87915123e-06
82    4.39631625e-16
83    -4.5518541e-05
84    8.96850956e-10
85    -4.48183245e-09
86    5.98235001e-08
87    -1.03666485e-07
88    2.68543748e-06
89    1.08298919e-05
90    -6.22216439e-06
91    2.23287475e-06
92    -1.02227616e-06
93    -1.58841062e-15
94    -2.71059513e-05
95    -2.18033278e-05
96    1.15055233e-06
97    -2.3603432e-15
98    6.92884231e-05
99    3.65484847e-05
100    -4.3693015e-05
101    -3.72181579e-15
102    0.000261097088
103    8.34533588e-05
104    -7.66119599e-06
105    -6.16868109e-15
106    -0.0017487173
107    -0.000445347748
108    -0.000233687192
109    -6.27222457e-15
110    -2.97187112e-06
111    9.41081988e-17
112    -1.2451943e-06
113    -5.16616095e-16
114    -6.67920236e-06