                  Welcome to Q-Chem
     A Quantum Leap Into The Future Of Chemistry


 Q-Chem 5.2 (devel), Q-Chem, Inc., Pleasanton, CA (2019)

 Yihan Shao,  Zhengting Gan,  E. Epifanovsky,  A. T. B. Gilbert,  M. Wormit,  
 J. Kussmann,  A. W. Lange,  A. Behn,  Jia Deng,  Xintian Feng,  D. Ghosh,  
 M. Goldey,  P. R. Horn,  L. D. Jacobson,  I. Kaliman,  T. Kus,  A. Landau,  
 Jie Liu,  E. I. Proynov,  R. M. Richard,  R. P. Steele,  E. J. Sundstrom,  
 H. L. Woodcock III,  P. M. Zimmerman,  D. Zuev,  B. Albrecht,  E. Alguire,  
 S. A. Baeppler,  D. Barton,  Z. Benda,  Y. A. Bernard,  E. J. Berquist,  
 K. B. Bravaya,  H. Burton,  D. Casanova,  Chun-Min Chang,  Yunqing Chen,  
 A. Chien,  K. D. Closser,  M. P. Coons,  S. Coriani,  S. Dasgupta,  
 A. L. Dempwolff,  M. Diedenhofen,  Hainam Do,  R. G. Edgar,  Po-Tung Fang,  
 S. Faraji,  S. Fatehi,  Qingguo Feng,  K. D. Fenk,  J. Fosso-Tande,  
 J. Gayvert,  Qinghui Ge,  A. Ghysels,  G. Gidofalvi,  J. Gomes,  
 J. Gonthier,  A. Gunina,  D. Hait,  M. W. D. Hanson-Heine,  
 P. H. P. Harbach,  A. W. Hauser,  M. F. Herbst,  J. E. Herr,  
 E. G. Hohenstein,  Z. C. Holden,  Kerwin Hui,  B. C. Huynh,  T.-C. Jagau,  
 Hyunjun Ji,  B. Kaduk,  K. Khistyaev,  Jaehoon Kim,  P. Klunzinger,  K. Koh,  
 D. Kosenkov,  L. Koulias,  T. Kowalczyk,  C. M. Krauter,  A. Kunitsa,  
 Ka Un Lao,  A. Laurent,  K. V. Lawler,  Joonho Lee,  D. Lefrancois,  
 S. Lehtola,  D. S. Levine,  Yi-Pei Li,  You-Sheng Lin,  Fenglai Liu,  
 E. Livshits,  A. Luenser,  P. Manohar,  E. Mansoor,  S. F. Manzer,  
 Shan-Ping Mao,  Yuezhi Mao,  N. Mardirossian,  A. V. Marenich,  
 T. Markovich,  L. A. Martinez-Martinez,  S. A. Maurer,  N. J. Mayhall,  
 S. C. McKenzie,  J.-M. Mewes,  P. Morgante,  A. F. Morrison,  
 J. W. Mullinax,  K. Nanda,  T. S. Nguyen-Beck,  R. Olivares-Amaya,  
 J. A. Parkhill,  Zheng Pei,  T. M. Perrine,  F. Plasser,  P. Pokhilko,  
 S. Prager,  A. Prociuk,  E. Ramos,  D. R. Rehn,  F. Rob,  M. Scheurer,  
 M. Schneider,  N. Sergueev,  S. M. Sharada,  S. Sharma,  D. W. Small,  
 T. Stauch,  T. Stein,  Yu-Chuan Su,  A. J. W. Thom,  A. Tkatchenko,  
 T. Tsuchimochi,  N. M. Tubman,  L. Vogt,  M. L. Vidal,  O. Vydrov,  
 M. A. Watson,  J. Wenzel,  M. de Wergifosse,  T. A. Wesolowski,  A. White,  
 J. Witte,  A. Yamada,  Jun Yang,  K. Yao,  S. Yeganeh,  S. R. Yost,  
 Zhi-Qiang You,  A. Zech,  Igor Ying Zhang,  Xing Zhang,  Yan Zhao,  
 Ying Zhu,  B. R. Brooks,  G. K. L. Chan,  C. J. Cramer,  M. S. Gordon,  
 W. J. Hehre,  A. Klamt,  M. W. Schmidt,  C. D. Sherrill,  D. G. Truhlar,  
 A. Aspuru-Guzik,  R. Baer,  A. T. Bell,  N. A. Besley,  Jeng-Da Chai,  
 A. E. DePrince, III,  R. A. DiStasio Jr.,  A. Dreuw,  B. D. Dunietz,  
 T. R. Furlani,  Chao-Ping Hsu,  Yousung Jung,  Jing Kong,  D. S. Lambrecht,  
 WanZhen Liang,  C. Ochsenfeld,  V. A. Rassolov,  L. V. Slipchenko,  
 J. E. Subotnik,  T. Van Voorhis,  J. M. Herbert,  A. I. Krylov,  
 P. M. W. Gill,  M. Head-Gordon

 Contributors to earlier versions of Q-Chem not listed above: 
 R. D. Adamson,  B. Austin,  J. Baker,  G. J. O. Beran,  K. Brandhorst,  
 S. T. Brown,  E. F. C. Byrd,  A. K. Chakraborty,  C.-L. Cheng,  
 Siu Hung Chien,  D. M. Chipman,  D. L. Crittenden,  H. Dachsel,  
 R. J. Doerksen,  A. D. Dutoi,  L. Fusti-Molnar,  W. A. Goddard III,  
 A. Golubeva-Zadorozhnaya,  S. R. Gwaltney,  G. Hawkins,  A. Heyden,  
 S. Hirata,  G. Kedziora,  F. J. Keil,  C. Kelley,  Jihan Kim,  R. A. King,  
 R. Z. Khaliullin,  P. P. Korambath,  W. Kurlancheek,  A. M. Lee,  M. S. Lee,  
 S. V. Levchenko,  Ching Yeh Lin,  D. Liotard,  R. C. Lochan,  I. Lotan,  
 P. E. Maslen,  N. Nair,  D. P. O'Neill,  D. Neuhauser,  E. Neuscamman,  
 C. M. Oana,  R. Olson,  B. Peters,  R. Peverati,  P. A. Pieniazek,  
 Y. M. Rhee,  J. Ritchie,  M. A. Rohrdanz,  E. Rosta,  N. J. Russ,  
 H. F. Schaefer III,  N. E. Schultz,  N. Shenvi,  A. C. Simmonett,  A. Sodt,  
 D. Stuck,  K. S. Thanthiriwatte,  V. Vanovschi,  Tao Wang,  A. Warshel,  
 C. F. Williams,  Q. Wu,  X. Xu,  W. Zhang

 Please cite Q-Chem as follows:
 Y. Shao et al., Mol. Phys. 113, 184-215 (2015)
 DOI: 10.1080/00268976.2014.952696

 Q-Chem 5.2.0 for Intel X86 EM64T Linux

 Parts of Q-Chem use Armadillo 8.300.2 (Tropical Shenanigans).
 http://arma.sourceforge.net/

 Q-Chem begins on Wed Jun 12 18:19:09 2019  

n-62-23-18
Host: 0

     Scratch files written to /work1/malop/qc_8407490.hnode2/qchem13089//
NAlpha2: 58
NElect   58
Mult     1

Checking the input file for inconsistencies... 	...done.

--------------------------------------------------------------
User input:
--------------------------------------------------------------
$comment
Uracil XPS C K-edge 6-311(2+,+)G** (uc)
Optimized geometry for S1 at ccsd / aug-cc-pVDZ
$end

$molecule
0 1
C        -0.0042112405   -1.7549930536    0.0000000000
H        -2.0949460216   -1.4184138214    0.0000000000
H        -0.1300971688   -2.8358204634    0.0000000000
H         0.0374086733    2.0243048927    0.0000000000
C        -1.2210197500    0.4010705948    0.0000000000
O        -2.2535781024    1.0567627444    0.0000000000
C         1.2399442445    0.2839850904    0.0000000000
O         2.3361887279    1.0691923037    0.0000000000
N         0.0349480223    1.0125648826    0.0000000000
N        -1.1853832587   -0.9770870742    0.0000000000
C         1.2251302704   -1.1165150648    0.0000000000
H         2.1596039787   -1.6767971209    0.0000000000
$end

$rem
JOBTYPE SP
BASIS GENERAL
METHOD HF
$end

$basis
H    0
6-311(2+,+)G**
****
O    0
S    1    1.000000
   8.58850000E+03    1.89515000E-03
S    1    1.000000
   1.29723000E+03    1.43859000E-02
S    1    1.000000
   2.99296000E+02    7.07320000E-02
S    1    1.000000
   8.73771000E+01    2.40001000E-01
S    1    1.000000
   2.56789000E+01    5.94797000E-01
S    1    1.000000
   3.74004000E+00    2.80802000E-01
SP   3    1.000000
   4.21175000E+01    1.13889000E-01   3.65114000E-02
   9.62837000E+00    9.20811000E-01   2.37153000E-01
   2.85332000E+00   -3.27447000E-03   8.19702000E-01
SP   1    1.000000
   9.05661000E-01    1.00000000E+00   1.00000000E+00
SP   1    1.000000
   2.55611000E-01    1.00000000E+00   1.00000000E+00
SP   1    1.000000
   8.45000000E-02    1.00000000E+00   1.00000000E+00
SP   1    1.000000
   2.54518072E-02    1.00000000E+00   1.00000000E+00
D    1    1.000000
   1.29200000E+00    1.00000000E+00
****
N    0
S    1    1.000000
   6.29348000E+03    1.96979000E-03
S    1    1.000000
   9.49044000E+02    1.49613000E-02
S    1    1.000000
   2.18776000E+02    7.35006000E-02
S    1    1.000000
   6.36916000E+01    2.48937000E-01
S    1    1.000000
   1.88282000E+01    6.02460000E-01
S    1    1.000000
   2.72023000E+00    2.56202000E-01
SP   3    1.000000
   3.06331000E+01    1.11906000E-01   3.83119000E-02
   7.02614000E+00    9.21666000E-01   2.37403000E-01
   2.11205000E+00   -2.56919000E-03   8.17592000E-01
SP   1    1.000000
   6.84009000E-01    1.00000000E+00   1.00000000E+00
SP   1    1.000000
   2.00878000E-01    1.00000000E+00   1.00000000E+00
SP   1    1.000000
   6.39000000E-02    1.00000000E+00   1.00000000E+00
SP   1    1.000000
   1.92469880E-02    1.00000000E+00   1.00000000E+00
D    1    1.000000
   9.13000000E-01    1.00000000E+00
****
C    0
S    1    1.000000
   4.56324000E+03    1.96665000E-03
S    1    1.000000
   6.82024000E+02    1.52306000E-02
S    1    1.000000
   1.54973000E+02    7.61269000E-02
S    1    1.000000
   4.44553000E+01    2.60801000E-01
S    1    1.000000
   1.30290000E+01    6.16462000E-01
S    1    1.000000
   1.82773000E+00    2.21006000E-01
SP   3    1.000000
   2.09642000E+01    1.14660000E-01   4.02487000E-02
   4.80331000E+00    9.19999000E-01   2.37594000E-01
   1.45933000E+00   -3.03068000E-03   8.15854000E-01
SP   1    1.000000
   4.83456000E-01    1.00000000E+00   1.00000000E+00
SP   1    1.000000
   1.45585000E-01    1.00000000E+00   1.00000000E+00
SP   1    1.000000
   4.38000000E-02    1.00000000E+00   1.00000000E+00
SP   1    1.000000
   1.31927711E-02    1.00000000E+00   1.00000000E+00
D    1    1.000000
   6.26000000E-01    1.00000000E+00
****
$end

--------------------------------------------------------------
 ----------------------------------------------------------------
             Standard Nuclear Orientation (Angstroms)
    I     Atom           X                Y                Z
 ----------------------------------------------------------------
    1      C      -0.0075418336    -1.7589576307     0.0000000000
    2      H      -2.0976985029    -1.4188067789    -0.0000000000
    3      H      -0.1352742186    -2.8395683814    -0.0000000000
    4      H       0.0405351136     2.0202636900     0.0000000000
    5      C      -1.2206648390     0.3991818408    -0.0000000000
    6      O      -2.2521014059     1.0566372040    -0.0000000000
    7      C       1.2400955179     0.2778918438     0.0000000000
    8      O       2.3376799618     1.0612249299     0.0000000000
    9      N       0.0363458646     1.0085293608     0.0000000000
   10      N      -1.1873830418    -0.9790347032    -0.0000000000
   11      C       1.2228887503    -1.1225809570     0.0000000000
   12      H       2.1564038285    -1.6844587841     0.0000000000
 ----------------------------------------------------------------
 Molecular Point Group                 Cs    NOp =  2
 Largest Abelian Subgroup              Cs    NOp =  2
 Nuclear Repulsion Energy =         352.25219040 hartrees
 There are       29 alpha and       29 beta electrons
 Requested basis set is non-standard
 There are 116 shells and 276 basis functions

 Total QAlloc Memory Limit   2000 MB
 Mega-Array Size       188 MB
 MEM_STATIC part       192 MB

                       Distance Matrix (Angstroms)
             C (  1)   H (  2)   H (  3)   H (  4)   C (  5)   O (  6)
   H (  2)  2.117654
   H (  3)  1.088134  2.422741
   H (  4)  3.779527  4.049599  4.863011
   C (  5)  2.475729  2.018482  3.415783  2.053906
   O (  6)  3.600781  2.480255  4.434115  2.486917  1.223155
   C (  7)  2.388588  3.744283  3.407374  2.115373  2.463748  3.577972
   O (  8)  3.667901  5.081647  4.618624  2.489303  3.619409  4.589784
   N (  9)  2.767835  3.232044  3.851923  1.011743  1.396918  2.288953
   N ( 10)  1.414321  1.010977  2.137409  3.240922  1.378618  2.297300
   C ( 11)  1.385256  3.333774  2.189213  3.357891  2.878666  4.101774
   H ( 12)  2.165228  4.262389  2.566333  4.266365  3.968142  5.191197
             C (  7)   O (  8)   N (  9)   N ( 10)   C ( 11)
   O (  8)  1.348444
   N (  9)  1.408135  2.301937
   N ( 10)  2.733590  4.072926  2.334079
   C ( 11)  1.400579  2.451891  2.439163  2.414543
   H ( 12)  2.165743  2.751661  3.427365  3.417387  1.089567

 A cutoff of  1.0D-08 yielded   5048 shell pairs
 There are     33715 function pairs (     35699 Cartesian)
 Smallest overlap matrix eigenvalue = 2.91E-07

 Q-Chem warning in module stvman/mkSTV.C, line 318:

 Overlap eigenvalue is smaller than square root of threshold
 Use THRESH >= 12 to get rid of this warning

 Linear dependence detected in AO basis
 Tighter screening thresholds may be required for diffuse basis sets
 Use S2THRESH > 14 and THRESH = 14 in case of SCF convergence issues
 Number of orthogonalized atomic orbitals = 274
 Maximum deviation from orthogonality = 8.930E-11

 Scale SEOQF with 1.000000e-01/1.000000e-01/1.000000e-01

 Standard Electronic Orientation quadrupole field applied
 Nucleus-field energy     =     0.0000000101 hartrees
 Guess MOs from core Hamiltonian diagonalization

 -----------------------------------------------------------------------
  General SCF calculation program by
  Eric Jon Sundstrom, Paul Horn, Yuezhi Mao, Dmitri Zuev, Alec White,
  David Stuck, Shaama M.S., Shane Yost, Joonho Lee, David Small,
  Daniel Levine, Susi Lehtola, Hugh Burton, Evgeny Epifanovsky
 -----------------------------------------------------------------------
 Hartree-Fock
 using 4 threads for integral computing
 -------------------------------------------------------
 OpenMP Integral computing Module                
 Release: version 2.0, May 2017, Q-Chem Inc. Pleasanton 
 -------------------------------------------------------
 A restricted SCF calculation will be
 performed using DIIS
 SCF converges when DIIS error is below 1.0e-05
 ---------------------------------------
  Cycle       Energy         DIIS error
 ---------------------------------------
    1    -317.6482158221      1.18e-01  
    2    -297.2830415421      6.07e-02  
    3    -297.9562470710      8.02e-02  
    4    -375.3184036234      4.87e-02  
    5    -409.8715455885      1.71e-02  
    6    -411.7883989349      9.77e-03  
    7    -412.4969732014      2.05e-03  
    8    -412.5305961270      8.04e-04  
    9    -412.5378603449      3.74e-04  
   10    -412.5395261056      1.52e-04  
   11    -412.5399110923      3.63e-05  
   12    -412.5399311236      1.81e-05  
   13    -412.5399374747      9.08e-06  Convergence criterion met
 ---------------------------------------
 SCF time:   CPU 90.24s  wall 24.00s 
 SCF   energy in the final basis set =     -412.5399374747
 Total energy in the final basis set =     -412.5399374747

 --------------------------------------------------------------
             Orbital Energies (a.u.) and Symmetries
 --------------------------------------------------------------

 Alpha MOs, Restricted
 -- Occupied --                  
-20.553 -20.527 -15.666 -15.642 -11.432 -11.398 -11.377 -11.282
  1 A'    2 A'    3 A'    4 A'    5 A'    6 A'    7 A'    8 A'                 
 -1.439  -1.343  -1.305  -1.234  -1.106  -0.952  -0.899  -0.817
  9 A'   10 A'   11 A'   12 A'   13 A'   14 A'   15 A'   16 A'                 
 -0.771  -0.731  -0.675  -0.669  -0.661  -0.617  -0.577  -0.548
 17 A'   18 A'   19 A'    1 A"   20 A'   21 A'   22 A'    2 A"                 
 -0.528  -0.485  -0.435  -0.423  -0.375
  3 A"   23 A'   24 A'    4 A"    5 A"                                         
 -- Virtual --                   
  0.002   0.017   0.018   0.023   0.031   0.033   0.035   0.035
 25 A'   26 A'    6 A"   27 A'   28 A'   29 A'   30 A'    7 A"                 
  0.039   0.045   0.046   0.047   0.050   0.053   0.054   0.055
  8 A"   31 A'   32 A'    9 A"   33 A'   34 A'   10 A"   35 A'                 
  0.067   0.071   0.072   0.085   0.086   0.088   0.094   0.095
 36 A'   11 A"   37 A'   38 A'   12 A"   39 A'   40 A'   41 A'                 
  0.113   0.116   0.117   0.120   0.126   0.130   0.134   0.137
 13 A"   42 A'   14 A"   43 A'   44 A'   45 A'   46 A'   47 A'                 
  0.139   0.148   0.164   0.165   0.166   0.179   0.186   0.192
 48 A'   15 A"   49 A'   50 A'   16 A"   51 A'   17 A"   52 A'                 
  0.202   0.205   0.223   0.224   0.232   0.241   0.242   0.257
 53 A'   18 A"   54 A'   55 A'   56 A'   19 A"   57 A'   58 A'                 
  0.267   0.271   0.275   0.280   0.282   0.287   0.297   0.328
 59 A'   60 A'   20 A"   61 A'   21 A"   62 A'   63 A'   22 A"                 
  0.328   0.344   0.360   0.368   0.381   0.398   0.407   0.408
 64 A'   65 A'   66 A'   67 A'   68 A'   69 A'   23 A"   70 A'                 
  0.417   0.426   0.432   0.445   0.451   0.463   0.478   0.480
 71 A'   24 A"   72 A'   73 A'   74 A'   75 A'   76 A'   77 A'                 
  0.498   0.514   0.539   0.544   0.605   0.631   0.640   0.674
 78 A'   79 A'   80 A'   81 A'   82 A'   83 A'   84 A'   85 A'                 
  0.717   0.731   0.741   0.758   0.766   0.785   0.804   0.825
 86 A'   25 A"   87 A'   88 A'   26 A"   27 A"   89 A'   28 A"                 
  0.862   0.879   0.925   0.946   0.956   0.958   0.987   1.000
 90 A'   91 A'   92 A'   93 A'   94 A'   95 A'   96 A'   97 A'                 
  1.016   1.034   1.044   1.087   1.090   1.116   1.150   1.206
 98 A'   29 A"   99 A'   30 A"  100 A'  101 A'  102 A'   31 A"                 
  1.232   1.234   1.263   1.273   1.351   1.353   1.387   1.399
103 A'   32 A"  104 A'  105 A'   33 A"  106 A'   34 A"   35 A"                 
  1.408   1.440   1.465   1.480   1.525   1.526   1.538   1.559
 36 A"  107 A'  108 A'   37 A"   38 A"  109 A'  110 A'  111 A'                 
  1.604   1.733   1.756   1.778   1.797   1.865   1.865   1.889
112 A'  113 A'  114 A'  115 A'   39 A"  116 A'   40 A"  117 A'                 
  1.921   1.926   1.957   1.996   1.999   2.051   2.098   2.117
 41 A"  118 A'  119 A'   42 A"  120 A'  121 A'  122 A'  123 A'                 
  2.167   2.211   2.225   2.272   2.294   2.321   2.348   2.471
124 A'  125 A'   43 A"  126 A'  127 A'   44 A"  128 A'  129 A'                 
  2.540   2.584   2.633   2.652   2.709   2.768   2.809   2.817
 45 A"  130 A'   46 A"  131 A'   47 A"  132 A'   48 A"  133 A'                 
  2.924   2.948   2.980   3.001   3.044   3.081   3.134   3.146
134 A'  135 A'  136 A'  137 A'  138 A'   49 A"   50 A"  139 A'                 
  3.161   3.168   3.240   3.266   3.291   3.295   3.326   3.334
140 A'   51 A"  141 A'   52 A"   53 A"  142 A'  143 A'  144 A'                 
  3.334   3.461   3.572   3.641   3.657   3.744   3.777   3.791
 54 A"  145 A'  146 A'   55 A"  147 A'   56 A"  148 A'  149 A'                 
  3.878   3.942   3.962   3.983   4.079   4.232   4.292   4.345
150 A'  151 A'  152 A'  153 A'  154 A'  155 A'   57 A"   58 A"                 
  4.398   4.447   4.603   4.985   5.112   5.290   5.431   5.526
156 A'  157 A'  158 A'  159 A'  160 A'  161 A'  162 A'  163 A'                 
  5.620   5.641   5.657   5.692   5.766   5.821   5.866   6.360
 59 A"   60 A"  164 A'  165 A'  166 A'  167 A'  168 A'  169 A'                 
  6.433   7.635   7.692   9.759   9.898  20.620  20.682  20.694
170 A'  171 A'  172 A'  173 A'  174 A'  175 A'  176 A'  177 A'                 
 20.871  30.164  30.204  40.809  40.903  80.171  80.226  80.229
178 A'  179 A'  180 A'  181 A'  182 A'  183 A'  184 A'  185 A'                 
 80.400 116.284 116.321 159.175 159.245 321.996 322.042 322.050
186 A'  187 A'  188 A'  189 A'  190 A'  191 A'  192 A'  193 A'                 
322.206 460.385 460.419 631.888 631.9421431.5501431.5921431.603
194 A'  195 A'  196 A'  197 A'  198 A'  199 A'  200 A'  201 A'                 
*******2012.8602012.8932759.2962759.3378749.7718749.8128749.824
202 A'  203 A'  204 A'  205 A'  206 A'  207 A'  208 A'  209 A'                 
***************************************
210 A'  211 A'  212 A'  213 A'  214 A'                                         

 Beta MOs, Restricted
 -- Occupied --                  
-20.553 -20.527 -15.666 -15.642 -11.432 -11.398 -11.377 -11.282
  1 A'    2 A'    3 A'    4 A'    5 A'    6 A'    7 A'    8 A'                 
 -1.439  -1.343  -1.305  -1.234  -1.106  -0.952  -0.899  -0.817
  9 A'   10 A'   11 A'   12 A'   13 A'   14 A'   15 A'   16 A'                 
 -0.771  -0.731  -0.675  -0.669  -0.661  -0.617  -0.577  -0.548
 17 A'   18 A'   19 A'    1 A"   20 A'   21 A'   22 A'    2 A"                 
 -0.528  -0.485  -0.435  -0.423  -0.375
  3 A"   23 A'   24 A'    4 A"    5 A"                                         
 -- Virtual --                   
  0.002   0.017   0.018   0.023   0.031   0.033   0.035   0.035
 25 A'   26 A'    6 A"   27 A'   28 A'   29 A'   30 A'    7 A"                 
  0.039   0.045   0.046   0.047   0.050   0.053   0.054   0.055
  8 A"   31 A'   32 A'    9 A"   33 A'   34 A'   10 A"   35 A'                 
  0.067   0.071   0.072   0.085   0.086   0.088   0.094   0.095
 36 A'   11 A"   37 A'   38 A'   12 A"   39 A'   40 A'   41 A'                 
  0.113   0.116   0.117   0.120   0.126   0.130   0.134   0.137
 13 A"   42 A'   14 A"   43 A'   44 A'   45 A'   46 A'   47 A'                 
  0.139   0.148   0.164   0.165   0.166   0.179   0.186   0.192
 48 A'   15 A"   49 A'   50 A'   16 A"   51 A'   17 A"   52 A'                 
  0.202   0.205   0.223   0.224   0.232   0.241   0.242   0.257
 53 A'   18 A"   54 A'   55 A'   56 A'   19 A"   57 A'   58 A'                 
  0.267   0.271   0.275   0.280   0.282   0.287   0.297   0.328
 59 A'   60 A'   20 A"   61 A'   21 A"   62 A'   63 A'   22 A"                 
  0.328   0.344   0.360   0.368   0.381   0.398   0.407   0.408
 64 A'   65 A'   66 A'   67 A'   68 A'   69 A'   23 A"   70 A'                 
  0.417   0.426   0.432   0.445   0.451   0.463   0.478   0.480
 71 A'   24 A"   72 A'   73 A'   74 A'   75 A'   76 A'   77 A'                 
  0.498   0.514   0.539   0.544   0.605   0.631   0.640   0.674
 78 A'   79 A'   80 A'   81 A'   82 A'   83 A'   84 A'   85 A'                 
  0.717   0.731   0.741   0.758   0.766   0.785   0.804   0.825
 86 A'   25 A"   87 A'   88 A'   26 A"   27 A"   89 A'   28 A"                 
  0.862   0.879   0.925   0.946   0.956   0.958   0.987   1.000
 90 A'   91 A'   92 A'   93 A'   94 A'   95 A'   96 A'   97 A'                 
  1.016   1.034   1.044   1.087   1.090   1.116   1.150   1.206
 98 A'   29 A"   99 A'   30 A"  100 A'  101 A'  102 A'   31 A"                 
  1.232   1.234   1.263   1.273   1.351   1.353   1.387   1.399
103 A'   32 A"  104 A'  105 A'   33 A"  106 A'   34 A"   35 A"                 
  1.408   1.440   1.465   1.480   1.525   1.526   1.538   1.559
 36 A"  107 A'  108 A'   37 A"   38 A"  109 A'  110 A'  111 A'                 
  1.604   1.733   1.756   1.778   1.797   1.865   1.865   1.889
112 A'  113 A'  114 A'  115 A'   39 A"  116 A'   40 A"  117 A'                 
  1.921   1.926   1.957   1.996   1.999   2.051   2.098   2.117
 41 A"  118 A'  119 A'   42 A"  120 A'  121 A'  122 A'  123 A'                 
  2.167   2.211   2.225   2.272   2.294   2.321   2.348   2.471
124 A'  125 A'   43 A"  126 A'  127 A'   44 A"  128 A'  129 A'                 
  2.540   2.584   2.633   2.652   2.709   2.768   2.809   2.817
 45 A"  130 A'   46 A"  131 A'   47 A"  132 A'   48 A"  133 A'                 
  2.924   2.948   2.980   3.001   3.044   3.081   3.134   3.146
134 A'  135 A'  136 A'  137 A'  138 A'   49 A"   50 A"  139 A'                 
  3.161   3.168   3.240   3.266   3.291   3.295   3.326   3.334
140 A'   51 A"  141 A'   52 A"   53 A"  142 A'  143 A'  144 A'                 
  3.334   3.461   3.572   3.641   3.657   3.744   3.777   3.791
 54 A"  145 A'  146 A'   55 A"  147 A'   56 A"  148 A'  149 A'                 
  3.878   3.942   3.962   3.983   4.079   4.232   4.292   4.345
150 A'  151 A'  152 A'  153 A'  154 A'  155 A'   57 A"   58 A"                 
  4.398   4.447   4.603   4.985   5.112   5.290   5.431   5.526
156 A'  157 A'  158 A'  159 A'  160 A'  161 A'  162 A'  163 A'                 
  5.620   5.641   5.657   5.692   5.766   5.821   5.866   6.360
 59 A"   60 A"  164 A'  165 A'  166 A'  167 A'  168 A'  169 A'                 
  6.433   7.635   7.692   9.759   9.898  20.620  20.682  20.694
170 A'  171 A'  172 A'  173 A'  174 A'  175 A'  176 A'  177 A'                 
 20.871  30.164  30.204  40.809  40.903  80.171  80.226  80.229
178 A'  179 A'  180 A'  181 A'  182 A'  183 A'  184 A'  185 A'                 
 80.400 116.284 116.321 159.175 159.245 321.996 322.042 322.050
186 A'  187 A'  188 A'  189 A'  190 A'  191 A'  192 A'  193 A'                 
322.206 460.385 460.419 631.888 631.9421431.5501431.5921431.603
194 A'  195 A'  196 A'  197 A'  198 A'  199 A'  200 A'  201 A'                 
*******2012.8602012.8932759.2962759.3378749.7718749.8128749.824
202 A'  203 A'  204 A'  205 A'  206 A'  207 A'  208 A'  209 A'                 
***************************************
210 A'  211 A'  212 A'  213 A'  214 A'                                         
 --------------------------------------------------------------

          Ground-State Mulliken Net Atomic Charges

     Atom                 Charge (a.u.)
  ----------------------------------------
      1 C                     0.020931
      2 H                     0.360685
      3 H                     0.186087
      4 H                     0.399964
      5 C                     0.252045
      6 O                    -0.077333
      7 C                    -0.087856
      8 O                    -0.211587
      9 N                    -0.541634
     10 N                    -0.389764
     11 C                    -0.181362
     12 H                     0.269825
  ----------------------------------------
  Sum of atomic charges =     0.000000

 -----------------------------------------------------------------
                    Cartesian Multipole Moments
 -----------------------------------------------------------------
    Charge (ESU x 10^10)
                 0.0000
    Dipole Moment (Debye)
         X      -2.2906      Y      -6.1152      Z      -0.0000
       Tot       6.5301
    Quadrupole Moments (Debye-Ang)
        XX     -62.9685     XY       0.7806     YY     -37.5600
        XZ      -0.0000     YZ       0.0000     ZZ     -47.4112
    Octopole Moments (Debye-Ang^2)
       XXX     -19.2092    XXY     -39.7227    XYY      -6.6083
       YYY     -13.2430    XXZ      -0.0000    XYZ      -0.0000
       YYZ      -0.0000    XZZ      -2.9720    YZZ       3.7215
       ZZZ      -0.0000
    Hexadecapole Moments (Debye-Ang^3)
      XXXX    -752.5396   XXXY       2.9036   XXYY    -183.8843
      XYYY       8.8042   YYYY    -307.2951   XXXZ      -0.0000
      XXYZ       0.0000   XYYZ      -0.0000   YYYZ       0.0000
      XXZZ    -117.9723   XYZZ       1.6231   YYZZ     -78.8009
      XZZZ      -0.0000   YZZZ       0.0000   ZZZZ     -47.9436
 -----------------------------------------------------------------
Archival summary:
1\1\n-62-23-18\SP\HF\BasisUnspecified\2244\malop\WedJun1218:19:342019WedJun1218:19:342019\0\\#,HF,BasisUnspecified,\\0,1\N\H,1,1.01174\C,1,1.39692,2,116.099\O,3,1.22316,1,121.624,2,0,0\N,3,1.37862,1,114.479,2,180,0\H,5,1.01098,3,114.402,1,-180,0\C,1,1.40814,2,121.019,3,-180,0\O,7,1.34844,1,113.229,2,-0,0\C,7,1.40058,1,120.552,2,180,0\H,9,1.08957,7,120.34,1,180,0\C,9,1.38526,7,118.052,1,0,0\H,11,1.08813,9,124.089,7,180,0\\HF=-412.539937\\@

 Total job time:  24.53s(wall), 90.63s(cpu) 
 Wed Jun 12 18:19:34 2019

        *************************************************************
        *                                                           *
        *  Thank you very much for using Q-Chem.  Have a nice day.  *
        *                                                           *
        *************************************************************


 
User input: 2 of 2 
 
                  Welcome to Q-Chem
     A Quantum Leap Into The Future Of Chemistry


 Q-Chem 5.2 (devel), Q-Chem, Inc., Pleasanton, CA (2019)

 Yihan Shao,  Zhengting Gan,  E. Epifanovsky,  A. T. B. Gilbert,  M. Wormit,  
 J. Kussmann,  A. W. Lange,  A. Behn,  Jia Deng,  Xintian Feng,  D. Ghosh,  
 M. Goldey,  P. R. Horn,  L. D. Jacobson,  I. Kaliman,  T. Kus,  A. Landau,  
 Jie Liu,  E. I. Proynov,  R. M. Richard,  R. P. Steele,  E. J. Sundstrom,  
 H. L. Woodcock III,  P. M. Zimmerman,  D. Zuev,  B. Albrecht,  E. Alguire,  
 S. A. Baeppler,  D. Barton,  Z. Benda,  Y. A. Bernard,  E. J. Berquist,  
 K. B. Bravaya,  H. Burton,  D. Casanova,  Chun-Min Chang,  Yunqing Chen,  
 A. Chien,  K. D. Closser,  M. P. Coons,  S. Coriani,  S. Dasgupta,  
 A. L. Dempwolff,  M. Diedenhofen,  Hainam Do,  R. G. Edgar,  Po-Tung Fang,  
 S. Faraji,  S. Fatehi,  Qingguo Feng,  K. D. Fenk,  J. Fosso-Tande,  
 J. Gayvert,  Qinghui Ge,  A. Ghysels,  G. Gidofalvi,  J. Gomes,  
 J. Gonthier,  A. Gunina,  D. Hait,  M. W. D. Hanson-Heine,  
 P. H. P. Harbach,  A. W. Hauser,  M. F. Herbst,  J. E. Herr,  
 E. G. Hohenstein,  Z. C. Holden,  Kerwin Hui,  B. C. Huynh,  T.-C. Jagau,  
 Hyunjun Ji,  B. Kaduk,  K. Khistyaev,  Jaehoon Kim,  P. Klunzinger,  K. Koh,  
 D. Kosenkov,  L. Koulias,  T. Kowalczyk,  C. M. Krauter,  A. Kunitsa,  
 Ka Un Lao,  A. Laurent,  K. V. Lawler,  Joonho Lee,  D. Lefrancois,  
 S. Lehtola,  D. S. Levine,  Yi-Pei Li,  You-Sheng Lin,  Fenglai Liu,  
 E. Livshits,  A. Luenser,  P. Manohar,  E. Mansoor,  S. F. Manzer,  
 Shan-Ping Mao,  Yuezhi Mao,  N. Mardirossian,  A. V. Marenich,  
 T. Markovich,  L. A. Martinez-Martinez,  S. A. Maurer,  N. J. Mayhall,  
 S. C. McKenzie,  J.-M. Mewes,  P. Morgante,  A. F. Morrison,  
 J. W. Mullinax,  K. Nanda,  T. S. Nguyen-Beck,  R. Olivares-Amaya,  
 J. A. Parkhill,  Zheng Pei,  T. M. Perrine,  F. Plasser,  P. Pokhilko,  
 S. Prager,  A. Prociuk,  E. Ramos,  D. R. Rehn,  F. Rob,  M. Scheurer,  
 M. Schneider,  N. Sergueev,  S. M. Sharada,  S. Sharma,  D. W. Small,  
 T. Stauch,  T. Stein,  Yu-Chuan Su,  A. J. W. Thom,  A. Tkatchenko,  
 T. Tsuchimochi,  N. M. Tubman,  L. Vogt,  M. L. Vidal,  O. Vydrov,  
 M. A. Watson,  J. Wenzel,  M. de Wergifosse,  T. A. Wesolowski,  A. White,  
 J. Witte,  A. Yamada,  Jun Yang,  K. Yao,  S. Yeganeh,  S. R. Yost,  
 Zhi-Qiang You,  A. Zech,  Igor Ying Zhang,  Xing Zhang,  Yan Zhao,  
 Ying Zhu,  B. R. Brooks,  G. K. L. Chan,  C. J. Cramer,  M. S. Gordon,  
 W. J. Hehre,  A. Klamt,  M. W. Schmidt,  C. D. Sherrill,  D. G. Truhlar,  
 A. Aspuru-Guzik,  R. Baer,  A. T. Bell,  N. A. Besley,  Jeng-Da Chai,  
 A. E. DePrince, III,  R. A. DiStasio Jr.,  A. Dreuw,  B. D. Dunietz,  
 T. R. Furlani,  Chao-Ping Hsu,  Yousung Jung,  Jing Kong,  D. S. Lambrecht,  
 WanZhen Liang,  C. Ochsenfeld,  V. A. Rassolov,  L. V. Slipchenko,  
 J. E. Subotnik,  T. Van Voorhis,  J. M. Herbert,  A. I. Krylov,  
 P. M. W. Gill,  M. Head-Gordon

 Contributors to earlier versions of Q-Chem not listed above: 
 R. D. Adamson,  B. Austin,  J. Baker,  G. J. O. Beran,  K. Brandhorst,  
 S. T. Brown,  E. F. C. Byrd,  A. K. Chakraborty,  C.-L. Cheng,  
 Siu Hung Chien,  D. M. Chipman,  D. L. Crittenden,  H. Dachsel,  
 R. J. Doerksen,  A. D. Dutoi,  L. Fusti-Molnar,  W. A. Goddard III,  
 A. Golubeva-Zadorozhnaya,  S. R. Gwaltney,  G. Hawkins,  A. Heyden,  
 S. Hirata,  G. Kedziora,  F. J. Keil,  C. Kelley,  Jihan Kim,  R. A. King,  
 R. Z. Khaliullin,  P. P. Korambath,  W. Kurlancheek,  A. M. Lee,  M. S. Lee,  
 S. V. Levchenko,  Ching Yeh Lin,  D. Liotard,  R. C. Lochan,  I. Lotan,  
 P. E. Maslen,  N. Nair,  D. P. O'Neill,  D. Neuhauser,  E. Neuscamman,  
 C. M. Oana,  R. Olson,  B. Peters,  R. Peverati,  P. A. Pieniazek,  
 Y. M. Rhee,  J. Ritchie,  M. A. Rohrdanz,  E. Rosta,  N. J. Russ,  
 H. F. Schaefer III,  N. E. Schultz,  N. Shenvi,  A. C. Simmonett,  A. Sodt,  
 D. Stuck,  K. S. Thanthiriwatte,  V. Vanovschi,  Tao Wang,  A. Warshel,  
 C. F. Williams,  Q. Wu,  X. Xu,  W. Zhang

 Please cite Q-Chem as follows:
 Y. Shao et al., Mol. Phys. 113, 184-215 (2015)
 DOI: 10.1080/00268976.2014.952696

 Q-Chem 5.2.0 for Intel X86 EM64T Linux

 Parts of Q-Chem use Armadillo 8.300.2 (Tropical Shenanigans).
 http://arma.sourceforge.net/

 Q-Chem begins on Wed Jun 12 18:19:34 2019  

n-62-23-18
Host: 0

     Scratch files written to /work1/malop/qc_8407490.hnode2/qchem13089//
NAlpha2: 60
NElect   58
Mult     3

Checking the input file for inconsistencies... 	...done.

--------------------------------------------------------------
User input:
--------------------------------------------------------------

$molecule
0 3
C        -0.0042112405   -1.7549930536    0.0000000000
H        -2.0949460216   -1.4184138214    0.0000000000
H        -0.1300971688   -2.8358204634    0.0000000000
H         0.0374086733    2.0243048927    0.0000000000
C        -1.2210197500    0.4010705948    0.0000000000
O        -2.2535781024    1.0567627444    0.0000000000
C         1.2399442445    0.2839850904    0.0000000000
O         2.3361887279    1.0691923037    0.0000000000
N         0.0349480223    1.0125648826    0.0000000000
N        -1.1853832587   -0.9770870742    0.0000000000
C         1.2251302704   -1.1165150648    0.0000000000
H         2.1596039787   -1.6767971209    0.0000000000
$end

$rem
   JOB_TYPE  =  SP
   BASIS  = general
   print_general_basis = true
   METHOD  =  EOM-CCSD
   SCF_GUESS read
   mom_start = 1
   CVS_IP_STATES = [4,0]
   !eom_davidson_convergence = 4
   cvs_eom_shift = 10500
   n_frozen_core = fc
   cc_trans_prop = true
   cc_memory = 40000
   cc_do_dyson = true
   MOLDEN_FORMAT = TRUE
$end

$basis
H    0
6-311(2+,+)G**
****
O    0
S    1    1.000000
   8.58850000E+03    1.89515000E-03
S    1    1.000000
   1.29723000E+03    1.43859000E-02
S    1    1.000000
   2.99296000E+02    7.07320000E-02
S    1    1.000000
   8.73771000E+01    2.40001000E-01
S    1    1.000000
   2.56789000E+01    5.94797000E-01
S    1    1.000000
   3.74004000E+00    2.80802000E-01
SP   3    1.000000
   4.21175000E+01    1.13889000E-01   3.65114000E-02
   9.62837000E+00    9.20811000E-01   2.37153000E-01
   2.85332000E+00   -3.27447000E-03   8.19702000E-01
SP   1    1.000000
   9.05661000E-01    1.00000000E+00   1.00000000E+00
SP   1    1.000000
   2.55611000E-01    1.00000000E+00   1.00000000E+00
SP   1    1.000000
   8.45000000E-02    1.00000000E+00   1.00000000E+00
SP   1    1.000000
   2.54518072E-02    1.00000000E+00   1.00000000E+00
D    1    1.000000
   1.29200000E+00    1.00000000E+00
****
N    0
S    1    1.000000
   6.29348000E+03    1.96979000E-03
S    1    1.000000
   9.49044000E+02    1.49613000E-02
S    1    1.000000
   2.18776000E+02    7.35006000E-02
S    1    1.000000
   6.36916000E+01    2.48937000E-01
S    1    1.000000
   1.88282000E+01    6.02460000E-01
S    1    1.000000
   2.72023000E+00    2.56202000E-01
SP   3    1.000000
   3.06331000E+01    1.11906000E-01   3.83119000E-02
   7.02614000E+00    9.21666000E-01   2.37403000E-01
   2.11205000E+00   -2.56919000E-03   8.17592000E-01
SP   1    1.000000
   6.84009000E-01    1.00000000E+00   1.00000000E+00
SP   1    1.000000
   2.00878000E-01    1.00000000E+00   1.00000000E+00
SP   1    1.000000
   6.39000000E-02    1.00000000E+00   1.00000000E+00
SP   1    1.000000
   1.92469880E-02    1.00000000E+00   1.00000000E+00
D    1    1.000000
   9.13000000E-01    1.00000000E+00
****
C    0
S    1    1.000000
   4.56324000E+03    1.96665000E-03
S    1    1.000000
   6.82024000E+02    1.52306000E-02
S    1    1.000000
   1.54973000E+02    7.61269000E-02
S    1    1.000000
   4.44553000E+01    2.60801000E-01
S    1    1.000000
   1.30290000E+01    6.16462000E-01
S    1    1.000000
   1.82773000E+00    2.21006000E-01
SP   3    1.000000
   2.09642000E+01    1.14660000E-01   4.02487000E-02
   4.80331000E+00    9.19999000E-01   2.37594000E-01
   1.45933000E+00   -3.03068000E-03   8.15854000E-01
SP   1    1.000000
   4.83456000E-01    1.00000000E+00   1.00000000E+00
SP   1    1.000000
   1.45585000E-01    1.00000000E+00   1.00000000E+00
SP   1    1.000000
   4.38000000E-02    1.00000000E+00   1.00000000E+00
SP   1    1.000000
   1.31927711E-02    1.00000000E+00   1.00000000E+00
D    1    1.000000
   6.26000000E-01    1.00000000E+00
****
$end

$occupied
1:30
1:26 28 29
$end

--------------------------------------------------------------
 ----------------------------------------------------------------
             Standard Nuclear Orientation (Angstroms)
    I     Atom           X                Y                Z
 ----------------------------------------------------------------
    1      C      -0.0075418336    -1.7589576307     0.0000000000
    2      H      -2.0976985029    -1.4188067789    -0.0000000000
    3      H      -0.1352742186    -2.8395683814    -0.0000000000
    4      H       0.0405351136     2.0202636900     0.0000000000
    5      C      -1.2206648390     0.3991818408    -0.0000000000
    6      O      -2.2521014059     1.0566372040    -0.0000000000
    7      C       1.2400955179     0.2778918438     0.0000000000
    8      O       2.3376799618     1.0612249299     0.0000000000
    9      N       0.0363458646     1.0085293608     0.0000000000
   10      N      -1.1873830418    -0.9790347032    -0.0000000000
   11      C       1.2228887503    -1.1225809570     0.0000000000
   12      H       2.1564038285    -1.6844587841     0.0000000000
 ----------------------------------------------------------------
 Molecular Point Group                 Cs    NOp =  2
 Largest Abelian Subgroup              Cs    NOp =  2
 Nuclear Repulsion Energy =         352.25219040 hartrees
 There are       30 alpha and       28 beta electrons
 Requested basis set is non-standard
Basis set in general basis input format:
-----------------------------------------------------------------------
$basis
C    0
S    1    1.000000
   4.56324000E+03    1.96665000E-03 
S    1    1.000000
   6.82024000E+02    1.52306000E-02 
S    1    1.000000
   1.54973000E+02    7.61269000E-02 
S    1    1.000000
   4.44553000E+01    2.60801000E-01 
S    1    1.000000
   1.30290000E+01    6.16462000E-01 
S    1    1.000000
   1.82773000E+00    2.21006000E-01 
SP   3    1.000000
   2.09642000E+01    1.14660000E-01   4.02487000E-02 
   4.80331000E+00    9.19999000E-01   2.37594000E-01 
   1.45933000E+00   -3.03068000E-03   8.15854000E-01 
SP   1    1.000000
   4.83456000E-01    1.00000000E+00   1.00000000E+00 
SP   1    1.000000
   1.45585000E-01    1.00000000E+00   1.00000000E+00 
SP   1    1.000000
   4.38000000E-02    1.00000000E+00   1.00000000E+00 
SP   1    1.000000
   1.31927711E-02    1.00000000E+00   1.00000000E+00 
D    1    1.000000
   6.26000000E-01    1.00000000E+00 
****
H    0
S    3    1.000000
   3.38650000E+01    2.54938000E-02 
   5.09479000E+00    1.90373000E-01 
   1.15879000E+00    8.52161000E-01 
S    1    1.000000
   3.25840000E-01    1.00000000E+00 
S    1    1.000000
   1.02741000E-01    1.00000000E+00 
S    1    1.000000
   3.60000000E-02    1.00000000E+00 
P    1    1.000000
   7.50000000E-01    1.00000000E+00 
****
H    0
S    3    1.000000
   3.38650000E+01    2.54938000E-02 
   5.09479000E+00    1.90373000E-01 
   1.15879000E+00    8.52161000E-01 
S    1    1.000000
   3.25840000E-01    1.00000000E+00 
S    1    1.000000
   1.02741000E-01    1.00000000E+00 
S    1    1.000000
   3.60000000E-02    1.00000000E+00 
P    1    1.000000
   7.50000000E-01    1.00000000E+00 
****
H    0
S    3    1.000000
   3.38650000E+01    2.54938000E-02 
   5.09479000E+00    1.90373000E-01 
   1.15879000E+00    8.52161000E-01 
S    1    1.000000
   3.25840000E-01    1.00000000E+00 
S    1    1.000000
   1.02741000E-01    1.00000000E+00 
S    1    1.000000
   3.60000000E-02    1.00000000E+00 
P    1    1.000000
   7.50000000E-01    1.00000000E+00 
****
C    0
S    1    1.000000
   4.56324000E+03    1.96665000E-03 
S    1    1.000000
   6.82024000E+02    1.52306000E-02 
S    1    1.000000
   1.54973000E+02    7.61269000E-02 
S    1    1.000000
   4.44553000E+01    2.60801000E-01 
S    1    1.000000
   1.30290000E+01    6.16462000E-01 
S    1    1.000000
   1.82773000E+00    2.21006000E-01 
SP   3    1.000000
   2.09642000E+01    1.14660000E-01   4.02487000E-02 
   4.80331000E+00    9.19999000E-01   2.37594000E-01 
   1.45933000E+00   -3.03068000E-03   8.15854000E-01 
SP   1    1.000000
   4.83456000E-01    1.00000000E+00   1.00000000E+00 
SP   1    1.000000
   1.45585000E-01    1.00000000E+00   1.00000000E+00 
SP   1    1.000000
   4.38000000E-02    1.00000000E+00   1.00000000E+00 
SP   1    1.000000
   1.31927711E-02    1.00000000E+00   1.00000000E+00 
D    1    1.000000
   6.26000000E-01    1.00000000E+00 
****
O    0
S    1    1.000000
   8.58850000E+03    1.89515000E-03 
S    1    1.000000
   1.29723000E+03    1.43859000E-02 
S    1    1.000000
   2.99296000E+02    7.07320000E-02 
S    1    1.000000
   8.73771000E+01    2.40001000E-01 
S    1    1.000000
   2.56789000E+01    5.94797000E-01 
S    1    1.000000
   3.74004000E+00    2.80802000E-01 
SP   3    1.000000
   4.21175000E+01    1.13889000E-01   3.65114000E-02 
   9.62837000E+00    9.20811000E-01   2.37153000E-01 
   2.85332000E+00   -3.27447000E-03   8.19702000E-01 
SP   1    1.000000
   9.05661000E-01    1.00000000E+00   1.00000000E+00 
SP   1    1.000000
   2.55611000E-01    1.00000000E+00   1.00000000E+00 
SP   1    1.000000
   8.45000000E-02    1.00000000E+00   1.00000000E+00 
SP   1    1.000000
   2.54518072E-02    1.00000000E+00   1.00000000E+00 
D    1    1.000000
   1.29200000E+00    1.00000000E+00 
****
C    0
S    1    1.000000
   4.56324000E+03    1.96665000E-03 
S    1    1.000000
   6.82024000E+02    1.52306000E-02 
S    1    1.000000
   1.54973000E+02    7.61269000E-02 
S    1    1.000000
   4.44553000E+01    2.60801000E-01 
S    1    1.000000
   1.30290000E+01    6.16462000E-01 
S    1    1.000000
   1.82773000E+00    2.21006000E-01 
SP   3    1.000000
   2.09642000E+01    1.14660000E-01   4.02487000E-02 
   4.80331000E+00    9.19999000E-01   2.37594000E-01 
   1.45933000E+00   -3.03068000E-03   8.15854000E-01 
SP   1    1.000000
   4.83456000E-01    1.00000000E+00   1.00000000E+00 
SP   1    1.000000
   1.45585000E-01    1.00000000E+00   1.00000000E+00 
SP   1    1.000000
   4.38000000E-02    1.00000000E+00   1.00000000E+00 
SP   1    1.000000
   1.31927711E-02    1.00000000E+00   1.00000000E+00 
D    1    1.000000
   6.26000000E-01    1.00000000E+00 
****
O    0
S    1    1.000000
   8.58850000E+03    1.89515000E-03 
S    1    1.000000
   1.29723000E+03    1.43859000E-02 
S    1    1.000000
   2.99296000E+02    7.07320000E-02 
S    1    1.000000
   8.73771000E+01    2.40001000E-01 
S    1    1.000000
   2.56789000E+01    5.94797000E-01 
S    1    1.000000
   3.74004000E+00    2.80802000E-01 
SP   3    1.000000
   4.21175000E+01    1.13889000E-01   3.65114000E-02 
   9.62837000E+00    9.20811000E-01   2.37153000E-01 
   2.85332000E+00   -3.27447000E-03   8.19702000E-01 
SP   1    1.000000
   9.05661000E-01    1.00000000E+00   1.00000000E+00 
SP   1    1.000000
   2.55611000E-01    1.00000000E+00   1.00000000E+00 
SP   1    1.000000
   8.45000000E-02    1.00000000E+00   1.00000000E+00 
SP   1    1.000000
   2.54518072E-02    1.00000000E+00   1.00000000E+00 
D    1    1.000000
   1.29200000E+00    1.00000000E+00 
****
N    0
S    1    1.000000
   6.29348000E+03    1.96979000E-03 
S    1    1.000000
   9.49044000E+02    1.49613000E-02 
S    1    1.000000
   2.18776000E+02    7.35006000E-02 
S    1    1.000000
   6.36916000E+01    2.48937000E-01 
S    1    1.000000
   1.88282000E+01    6.02460000E-01 
S    1    1.000000
   2.72023000E+00    2.56202000E-01 
SP   3    1.000000
   3.06331000E+01    1.11906000E-01   3.83119000E-02 
   7.02614000E+00    9.21666000E-01   2.37403000E-01 
   2.11205000E+00   -2.56919000E-03   8.17592000E-01 
SP   1    1.000000
   6.84009000E-01    1.00000000E+00   1.00000000E+00 
SP   1    1.000000
   2.00878000E-01    1.00000000E+00   1.00000000E+00 
SP   1    1.000000
   6.39000000E-02    1.00000000E+00   1.00000000E+00 
SP   1    1.000000
   1.92469880E-02    1.00000000E+00   1.00000000E+00 
D    1    1.000000
   9.13000000E-01    1.00000000E+00 
****
N    0
S    1    1.000000
   6.29348000E+03    1.96979000E-03 
S    1    1.000000
   9.49044000E+02    1.49613000E-02 
S    1    1.000000
   2.18776000E+02    7.35006000E-02 
S    1    1.000000
   6.36916000E+01    2.48937000E-01 
S    1    1.000000
   1.88282000E+01    6.02460000E-01 
S    1    1.000000
   2.72023000E+00    2.56202000E-01 
SP   3    1.000000
   3.06331000E+01    1.11906000E-01   3.83119000E-02 
   7.02614000E+00    9.21666000E-01   2.37403000E-01 
   2.11205000E+00   -2.56919000E-03   8.17592000E-01 
SP   1    1.000000
   6.84009000E-01    1.00000000E+00   1.00000000E+00 
SP   1    1.000000
   2.00878000E-01    1.00000000E+00   1.00000000E+00 
SP   1    1.000000
   6.39000000E-02    1.00000000E+00   1.00000000E+00 
SP   1    1.000000
   1.92469880E-02    1.00000000E+00   1.00000000E+00 
D    1    1.000000
   9.13000000E-01    1.00000000E+00 
****
C    0
S    1    1.000000
   4.56324000E+03    1.96665000E-03 
S    1    1.000000
   6.82024000E+02    1.52306000E-02 
S    1    1.000000
   1.54973000E+02    7.61269000E-02 
S    1    1.000000
   4.44553000E+01    2.60801000E-01 
S    1    1.000000
   1.30290000E+01    6.16462000E-01 
S    1    1.000000
   1.82773000E+00    2.21006000E-01 
SP   3    1.000000
   2.09642000E+01    1.14660000E-01   4.02487000E-02 
   4.80331000E+00    9.19999000E-01   2.37594000E-01 
   1.45933000E+00   -3.03068000E-03   8.15854000E-01 
SP   1    1.000000
   4.83456000E-01    1.00000000E+00   1.00000000E+00 
SP   1    1.000000
   1.45585000E-01    1.00000000E+00   1.00000000E+00 
SP   1    1.000000
   4.38000000E-02    1.00000000E+00   1.00000000E+00 
SP   1    1.000000
   1.31927711E-02    1.00000000E+00   1.00000000E+00 
D    1    1.000000
   6.26000000E-01    1.00000000E+00 
****
H    0
S    3    1.000000
   3.38650000E+01    2.54938000E-02 
   5.09479000E+00    1.90373000E-01 
   1.15879000E+00    8.52161000E-01 
S    1    1.000000
   3.25840000E-01    1.00000000E+00 
S    1    1.000000
   1.02741000E-01    1.00000000E+00 
S    1    1.000000
   3.60000000E-02    1.00000000E+00 
P    1    1.000000
   7.50000000E-01    1.00000000E+00 
****
$end
-----------------------------------------------------------------------
 There are 116 shells and 276 basis functions
 WARNING: the default MEM_TOTAL is adjusted according to given MEM_STATIC!
 Total memory of 40192 MB is distributed as follows: 
   MEM_STATIC is set to 192 MB
   QALLOC/CCMAN JOB total memory use is  40000 MB
 Warning: actual memory use might exceed 40192 MB

 Total QAlloc Memory Limit  40192 MB
 Mega-Array Size       188 MB
 MEM_STATIC part       192 MB

                       Distance Matrix (Angstroms)
             C (  1)   H (  2)   H (  3)   H (  4)   C (  5)   O (  6)
   H (  2)  2.117654
   H (  3)  1.088134  2.422741
   H (  4)  3.779527  4.049599  4.863011
   C (  5)  2.475729  2.018482  3.415783  2.053906
   O (  6)  3.600781  2.480255  4.434115  2.486917  1.223155
   C (  7)  2.388588  3.744283  3.407374  2.115373  2.463748  3.577972
   O (  8)  3.667901  5.081647  4.618624  2.489303  3.619409  4.589784
   N (  9)  2.767835  3.232044  3.851923  1.011743  1.396918  2.288953
   N ( 10)  1.414321  1.010977  2.137409  3.240922  1.378618  2.297300
   C ( 11)  1.385256  3.333774  2.189213  3.357891  2.878666  4.101774
   H ( 12)  2.165228  4.262389  2.566333  4.266365  3.968142  5.191197
             C (  7)   O (  8)   N (  9)   N ( 10)   C ( 11)
   O (  8)  1.348444
   N (  9)  1.408135  2.301937
   N ( 10)  2.733590  4.072926  2.334079
   C ( 11)  1.400579  2.451891  2.439163  2.414543
   H ( 12)  2.165743  2.751661  3.427365  3.417387  1.089567

 A cutoff of  1.0D-14 yielded   5425 shell pairs
 There are     35716 function pairs (     37887 Cartesian)
 Smallest overlap matrix eigenvalue = 2.91E-07
 Linear dependence detected in AO basis
 Tighter screening thresholds may be required for diffuse basis sets
 Use S2THRESH > 14 and THRESH = 14 in case of SCF convergence issues
 Number of orthogonalized atomic orbitals = 274
 Maximum deviation from orthogonality = 8.930E-11

 Scale SEOQF with 1.000000e-01/1.000000e-01/1.000000e-01

 Standard Electronic Orientation quadrupole field applied
 Nucleus-field energy     =     0.0000000101 hartrees
 Guess MOs from SCF MO coefficient file
 Reading MOs from coefficient file
 User-specified occupied guess orbitals will be used
   Alpha:
   1   2   3   4   5   6   7   8   9  10  11  12  13  14  15
  16  17  18  19  20  21  22  23  24  25  26  27  28  29  30
 Reading MOs from coefficient file
   Beta:
   1   2   3   4   5   6   7   8   9  10  11  12  13  14  15
  16  17  18  19  20  21  22  23  24  25  26  28  29

 -----------------------------------------------------------------------
  General SCF calculation program by
  Eric Jon Sundstrom, Paul Horn, Yuezhi Mao, Dmitri Zuev, Alec White,
  David Stuck, Shaama M.S., Shane Yost, Joonho Lee, David Small,
  Daniel Levine, Susi Lehtola, Hugh Burton, Evgeny Epifanovsky
 -----------------------------------------------------------------------
 Hartree-Fock
 using 4 threads for integral computing
 -------------------------------------------------------
 OpenMP Integral computing Module                
 Release: version 2.0, May 2017, Q-Chem Inc. Pleasanton 
 -------------------------------------------------------
 A unrestricted SCF calculation will be
 performed using DIIS
 SCF converges when DIIS error is below 1.0e-08
 ---------------------------------------
  Cycle       Energy         DIIS error
 ---------------------------------------
Maximum Overlap Method Active
 MOM overlap:    29.9 / 30
Maximum Overlap Method Active
 MOM overlap:    28.0 / 28
    1    -412.1753384330      1.72e-03  
Maximum Overlap Method Active
 MOM overlap:    29.99 / 30
Maximum Overlap Method Active
 MOM overlap:    27.98 / 28
    2    -412.2822930109      1.30e-03  
Maximum Overlap Method Active
 MOM overlap:    29.99 / 30
Maximum Overlap Method Active
 MOM overlap:    28.00 / 28
    3    -412.3417033388      2.65e-04  
Maximum Overlap Method Active
 MOM overlap:    30.00 / 30
Maximum Overlap Method Active
 MOM overlap:    28.00 / 28
    4    -412.3531338204      1.32e-04  
Maximum Overlap Method Active
 MOM overlap:    30.00 / 30
Maximum Overlap Method Active
 MOM overlap:    28.00 / 28
    5    -412.3556990863      5.85e-05  
Maximum Overlap Method Active
 MOM overlap:    30.00 / 30
Maximum Overlap Method Active
 MOM overlap:    28.00 / 28
    6    -412.3565370758      2.99e-05  
Maximum Overlap Method Active
 MOM overlap:    30.00 / 30
Maximum Overlap Method Active
 MOM overlap:    28.00 / 28
    7    -412.3567649805      1.55e-05  
Maximum Overlap Method Active
 MOM overlap:    30.00 / 30
Maximum Overlap Method Active
 MOM overlap:    28.00 / 28
    8    -412.3568321794      6.98e-06  
Maximum Overlap Method Active
 MOM overlap:    30.00 / 30
Maximum Overlap Method Active
 MOM overlap:    28.00 / 28
    9    -412.3568458916      4.03e-06  
Maximum Overlap Method Active
 MOM overlap:    30.00 / 30
Maximum Overlap Method Active
 MOM overlap:    28.00 / 28
   10    -412.3568531284      2.57e-06  
Maximum Overlap Method Active
 MOM overlap:    30.00 / 30
Maximum Overlap Method Active
 MOM overlap:    28.00 / 28
   11    -412.3568585633      1.61e-06  
Maximum Overlap Method Active
 MOM overlap:    30.00 / 30
Maximum Overlap Method Active
 MOM overlap:    28.00 / 28
   12    -412.3568616888      9.80e-07  
Maximum Overlap Method Active
 MOM overlap:    30.00 / 30
Maximum Overlap Method Active
 MOM overlap:    28.00 / 28
   13    -412.3568628944      6.19e-07  
Maximum Overlap Method Active
 MOM overlap:    30.00 / 30
Maximum Overlap Method Active
 MOM overlap:    28.00 / 28
   14    -412.3568633665      3.68e-07  
Maximum Overlap Method Active
 MOM overlap:    30.00 / 30
Maximum Overlap Method Active
 MOM overlap:    28.00 / 28
   15    -412.3568635166      2.36e-07  
Maximum Overlap Method Active
 MOM overlap:    30.00 / 30
Maximum Overlap Method Active
 MOM overlap:    28.00 / 28
   16    -412.3568635729      1.30e-07  
Maximum Overlap Method Active
 MOM overlap:    30.00 / 30
Maximum Overlap Method Active
 MOM overlap:    28.00 / 28
   17    -412.3568635897      5.73e-08  
Maximum Overlap Method Active
 MOM overlap:    30.00 / 30
Maximum Overlap Method Active
 MOM overlap:    28.00 / 28
   18    -412.3568635927      2.53e-08  
Maximum Overlap Method Active
 MOM overlap:    30.00 / 30
Maximum Overlap Method Active
 MOM overlap:    28.00 / 28
   19    -412.3568635931      1.47e-08  
Maximum Overlap Method Active
 MOM overlap:    30.00 / 30
Maximum Overlap Method Active
 MOM overlap:    28.00 / 28
   20    -412.3568635932      1.01e-08  
   21    -412.3568635933      6.92e-09  Convergence criterion met
Maximum Overlap Method Active
 MOM overlap:    30.00 / 30
Maximum Overlap Method Active
 MOM overlap:    28.00 / 28
Maximum Overlap Method Active
 MOM overlap:    30.00 / 30
Maximum Overlap Method Active
 MOM overlap:    28.00 / 28
 ---------------------------------------
 SCF time:   CPU 226.66s  wall 60.00s 
<S^2> =          2.009309776
 SCF   energy in the final basis set =     -412.3568635933
 Total energy in the final basis set =     -412.3568635933


 ------------------------------------------------------------------------------

   CCMAN2: suite of methods based on coupled cluster
           and equation of motion theories.

   Components:
   * libvmm-1.3-trunk
     by Evgeny Epifanovsky, Ilya Kaliman.
   * libtensor-2.5-trunk
     by Evgeny Epifanovsky, Michael Wormit, Dmitry Zuev, Sam Manzer, 
        Ilya Kaliman.
   * libcc-2.5-trunk
     by Evgeny Epifanovsky, Arik Landau, Tomasz Kus, Kirill Khistyaev, 
        Dmitry Zuev, Prashant Manohar, Xintian Feng, Anna Krylov, 
        Matthew Goldey, Alec White, Thomas Jagau, Kaushik Nanda, 
        Anastasia Gunina, Alexander Kunitsa, Joonho Lee.

   CCMAN original authors:
   Anna I. Krylov, C. David Sherrill, Steven R. Gwaltney,
   Edward F. C. Byrd (2000)
   Sergey V. Levchenko, Lyudmila V. Slipchenko, Tao Wang,
   Ana-Maria C. Cristian (2003)
   Piotr A. Pieniazek, C. Melania Oana, Evgeny Epifanovsky (2007)
   Prashant Manohar (2009)

 ------------------------------------------------------------------------------


 Allocating and initializing 40000MB of RAM...
 Calculation will run on 4 cores.


 Alpha MOs, Unrestricted
 -- Occupied --                  
-20.805 -20.606 -15.741 -15.717 -11.525 -11.492 -11.441 -11.345
  1 A'    2 A'    3 A'    4 A'    5 A'    6 A'    7 A'    8 A'                 
 -1.597  -1.492  -1.382  -1.334  -1.181  -1.026  -0.997  -0.895
  9 A'   10 A'   11 A'   12 A'   13 A'   14 A'   15 A'   16 A'                 
 -0.865  -0.828  -0.790  -0.777  -0.772  -0.716  -0.705  -0.696
 17 A'   18 A'   19 A'   20 A'    1 A"   21 A'    2 A"   22 A'                 
 -0.667  -0.576  -0.561  -0.534  -0.449  -0.104
 23 A'    3 A"    4 A"   24 A'    5 A"   25 A'                                 
 -- Virtual --                   
 -0.030  -0.004   0.008   0.008   0.021   0.023   0.027   0.029
  6 A"   26 A'   27 A'    7 A"   28 A'   29 A'   30 A'    8 A"                 
  0.032   0.037   0.040   0.045   0.048   0.050   0.051   0.056
  9 A"   31 A'   32 A'   33 A'   34 A'   35 A'   10 A"   36 A'                 
  0.058   0.058   0.066   0.072   0.072   0.074   0.077   0.085
 37 A'   11 A"   38 A'   12 A"   39 A'   13 A"   40 A'   14 A"                 
  0.088   0.099   0.101   0.108   0.109   0.114   0.123   0.127
 41 A'   42 A'   43 A'   44 A'   15 A"   45 A'   46 A'   47 A'                 
  0.132   0.136   0.140   0.151   0.165   0.166   0.173   0.175
 48 A'   49 A'   50 A'   16 A"   17 A"   51 A'   18 A"   52 A'                 
  0.187   0.196   0.202   0.210   0.210   0.216   0.225   0.226
 53 A'   54 A'   55 A'   56 A'   19 A"   57 A'   20 A"   58 A'                 
  0.233   0.241   0.247   0.252   0.260   0.267   0.288   0.298
 59 A'   60 A'   21 A"   61 A'   62 A'   63 A'   64 A'   22 A"                 
  0.307   0.315   0.320   0.333   0.340   0.344   0.371   0.376
 65 A'   66 A'   23 A"   67 A'   68 A'   69 A'   70 A'   71 A'                 
  0.379   0.386   0.387   0.406   0.411   0.420   0.434   0.441
 72 A'   73 A'   24 A"   74 A'   75 A'   76 A'   77 A'   78 A'                 
  0.449   0.491   0.507   0.529   0.567   0.584   0.619   0.670
 79 A'   80 A'   81 A'   82 A'   83 A'   84 A'   85 A'   86 A'                 
  0.683   0.690   0.707   0.712   0.726   0.739   0.757   0.817
 87 A'   25 A"   26 A"   88 A'   89 A'   27 A"   28 A"   90 A'                 
  0.820   0.873   0.884   0.896   0.925   0.935   0.945   0.955
 91 A'   92 A'   93 A'   94 A'   95 A'   96 A'   97 A'   98 A'                 
  0.982   0.992   1.016   1.032   1.034   1.090   1.149   1.156
 29 A"   99 A'  100 A'   30 A"  101 A'  102 A'   31 A"   32 A"                 
  1.184   1.203   1.206   1.221   1.290   1.300   1.311   1.321
103 A'  104 A'  105 A'   33 A"  106 A'   34 A"  107 A'  108 A'                 
  1.337   1.359   1.378   1.420   1.447   1.468   1.504   1.524
 35 A"   36 A"   37 A"  109 A'   38 A"  110 A'  111 A'  112 A'                 
  1.670   1.679   1.713   1.749   1.780   1.786   1.819   1.839
113 A'  114 A'  115 A'   39 A"  116 A'   40 A"  117 A'  118 A'                 
  1.862   1.881   1.909   1.955   1.960   2.026   2.057   2.118
 41 A"  119 A'  120 A'   42 A"  121 A'  122 A'  123 A'  124 A'                 
  2.145   2.148   2.203   2.235   2.254   2.264   2.402   2.466
125 A'   43 A"  126 A'  127 A'  128 A'   44 A"  129 A'   45 A"                 
  2.517   2.552   2.569   2.651   2.725   2.733   2.756   2.847
130 A'   46 A"  131 A'   47 A"  132 A'   48 A"  133 A'  134 A'                 
  2.885   2.903   2.931   2.957   2.994   3.016   3.050   3.063
135 A'  136 A'  137 A'   49 A"  138 A'   50 A"  139 A'   51 A"                 
  3.089   3.111   3.120   3.177   3.237   3.238   3.248   3.263
140 A'   52 A"  141 A'  142 A'   53 A"  143 A'   54 A"  144 A'                 
  3.360   3.424   3.453   3.557   3.592   3.695   3.725   3.804
145 A'   55 A"  146 A'  147 A'  148 A'   56 A"  149 A'  150 A'                 
  3.871   3.889   3.908   4.015   4.122   4.223   4.277   4.334
151 A'  152 A'  153 A'  154 A'  155 A'   57 A"   58 A"  156 A'                 
  4.371   4.464   4.916   5.030   5.223   5.357   5.392   5.402
157 A'  158 A'  159 A'  160 A'  161 A'  162 A'   59 A"  163 A'                 
  5.483   5.573   5.589   5.627   5.763   5.787   6.130   6.381
164 A'   60 A"  165 A'  166 A'  167 A'  168 A'  169 A'  170 A'                 
  7.560   7.621   9.491   9.842  20.536  20.593  20.627  20.798
171 A'  172 A'  173 A'  174 A'  175 A'  176 A'  177 A'  178 A'                 
 30.093  30.126  40.546  40.845  80.082  80.136  80.165  80.330
179 A'  180 A'  181 A'  182 A'  183 A'  184 A'  185 A'  186 A'                 
116.214 116.242 158.922 159.188 321.905 321.954 321.987 322.137
187 A'  188 A'  189 A'  190 A'  191 A'  192 A'  193 A'  194 A'                 
460.314 460.341 631.642 631.8851431.4591431.5031431.5411431.677
195 A'  196 A'  197 A'  198 A'  199 A'  200 A'  201 A'  202 A'                 
*******2012.8152759.0532759.2818749.6808749.7198749.7638749.885
203 A'  204 A'  205 A'  206 A'  207 A'  208 A'  209 A'  210 A'                 
*******************************
211 A'  212 A'  213 A'  214 A'                                                 

 Beta MOs, Unrestricted
 -- Occupied --                  
-20.763 -20.606 -15.739 -15.717 -11.527 -11.492 -11.440 -11.344
  1 A'    2 A'    3 A'    4 A'    5 A'    6 A'    7 A'    8 A'                 
 -1.501  -1.463  -1.369  -1.321  -1.172  -1.015  -0.978  -0.882
  9 A'   10 A'   11 A'   12 A'   13 A'   14 A'   15 A'   16 A'                 
 -0.835  -0.796  -0.786  -0.749  -0.715  -0.692  -0.684  -0.671
 17 A'   18 A'   19 A'    1 A"   20 A'   21 A'    2 A"   22 A'                 
 -0.575  -0.551  -0.533  -0.447
  3 A"    4 A"   23 A'    5 A"                                                 
 -- Virtual --                   
 -0.053  -0.028  -0.001   0.014   0.016   0.019   0.030   0.030
 24 A'    6 A"   25 A'   26 A'    7 A"   27 A'   28 A'   29 A'                 
  0.033   0.034   0.040   0.041   0.046   0.050   0.054   0.057
  8 A"   30 A'    9 A"   31 A'   32 A'   33 A'   34 A'   10 A"                 
  0.057   0.060   0.062   0.066   0.074   0.077   0.080   0.081
 35 A'   36 A'   11 A"   37 A'   12 A"   38 A'   13 A"   39 A'                 
  0.088   0.090   0.093   0.103   0.105   0.110   0.113   0.118
 40 A'   14 A"   41 A'   42 A'   43 A'   15 A"   44 A'   45 A'                 
  0.128   0.129   0.138   0.142   0.150   0.159   0.172   0.173
 46 A'   47 A'   48 A'   49 A'   50 A'   16 A"   17 A"   51 A'                 
  0.181   0.182   0.197   0.205   0.209   0.214   0.216   0.224
 18 A"   52 A'   53 A'   54 A'   55 A'   19 A"   56 A'   57 A'                 
  0.227   0.235   0.237   0.246   0.250   0.259   0.266   0.272
 20 A"   58 A'   59 A'   60 A'   21 A"   61 A'   62 A'   63 A'                 
  0.293   0.304   0.311   0.323   0.326   0.341   0.343   0.347
 64 A'   22 A"   65 A'   66 A'   23 A"   67 A'   68 A'   69 A'                 
  0.377   0.381   0.388   0.389   0.395   0.413   0.419   0.429
 70 A'   71 A'   24 A"   72 A'   73 A'   74 A'   75 A'   76 A'                 
  0.437   0.449   0.460   0.503   0.513   0.537   0.572   0.587
 77 A'   78 A'   79 A'   80 A'   81 A'   82 A'   83 A'   84 A'                 
  0.623   0.673   0.689   0.691   0.708   0.717   0.737   0.741
 85 A'   86 A'   87 A'   25 A"   26 A"   88 A'   89 A'   27 A"                 
  0.758   0.819   0.823   0.875   0.889   0.899   0.929   0.938
 28 A"   90 A'   91 A'   92 A'   93 A'   94 A'   95 A'   96 A'                 
  0.949   0.959   0.983   0.993   1.020   1.033   1.038   1.091
 97 A'   98 A'   29 A"   99 A'  100 A'   30 A"  101 A'  102 A'                 
  1.149   1.158   1.188   1.207   1.210   1.237   1.300   1.303
 31 A"   32 A"  103 A'  104 A'  105 A'   33 A"   34 A"  106 A'                 
  1.324   1.338   1.359   1.379   1.395   1.439   1.447   1.472
107 A'   35 A"   36 A"   37 A"  108 A'  109 A'   38 A"  110 A'                 
  1.507   1.530   1.673   1.685   1.717   1.749   1.787   1.790
111 A'  112 A'  113 A'  114 A'  115 A'   39 A"   40 A"  116 A'                 
  1.827   1.845   1.863   1.885   1.918   1.955   1.962   2.028
117 A'  118 A'   41 A"  119 A'  120 A'   42 A"  121 A'  122 A'                 
  2.058   2.119   2.149   2.150   2.204   2.240   2.260   2.265
123 A'  124 A'  125 A'   43 A"  126 A'  127 A'  128 A'   44 A"                 
  2.405   2.469   2.524   2.554   2.575   2.652   2.728   2.740
129 A'   45 A"  130 A'   46 A"  131 A'   47 A"  132 A'   48 A"                 
  2.761   2.861   2.887   2.919   2.940   2.985   2.995   3.056
133 A'  134 A'  135 A'  136 A'  137 A'   49 A"  138 A'   50 A"                 
  3.087   3.108   3.109   3.115   3.155   3.190   3.238   3.240
139 A'  140 A'   51 A"   52 A"  141 A'  142 A'   53 A"  143 A'                 
  3.251   3.266   3.370   3.442   3.464   3.569   3.642   3.695
 54 A"  144 A'  145 A'   55 A"  146 A'  147 A'  148 A'   56 A"                 
  3.727   3.808   3.875   3.890   3.911   4.017   4.131   4.223
149 A'  150 A'  151 A'  152 A'  153 A'  154 A'  155 A'   57 A"                 
  4.277   4.337   4.376   4.475   4.918   5.033   5.224   5.360
 58 A"  156 A'  157 A'  158 A'  159 A'  160 A'  161 A'  162 A'                 
  5.420   5.433   5.573   5.578   5.594   5.628   5.763   5.789
 59 A"  163 A'   60 A"  164 A'  165 A'  166 A'  167 A'  168 A'                 
  6.151   6.381   7.562   7.622   9.539   9.842  20.535  20.593
169 A'  170 A'  171 A'  172 A'  173 A'  174 A'  175 A'  176 A'                 
 20.628  20.799  30.094  30.126  40.568  40.845  80.081  80.136
177 A'  178 A'  179 A'  180 A'  181 A'  182 A'  183 A'  184 A'                 
 80.166  80.330 116.214 116.243 158.929 159.188 321.905 321.954
185 A'  186 A'  187 A'  188 A'  189 A'  190 A'  191 A'  192 A'                 
321.987 322.138 460.315 460.341 631.644 631.8851431.4591431.503
193 A'  194 A'  195 A'  196 A'  197 A'  198 A'  199 A'  200 A'                 
*******1431.6772012.7902012.8152759.0542759.2818749.6808749.719
201 A'  202 A'  203 A'  204 A'  205 A'  206 A'  207 A'  208 A'                 
*******8749.885********************************
209 A'  210 A'  211 A'  212 A'  213 A'  214 A'                                 

 Occupation and symmetry of molecular orbitals

 Point group: Cs (2 irreducible representations).

                           A'   A"    All 
 ------------------------------------------
 All molecular orbitals:
  - Alpha                  214  60    274 
  - Beta                   214  60    274 
 ------------------------------------------
 Alpha orbitals:
  - Frozen occupied        8    0     8   
  - Active occupied        17   5     22  
  - Active virtual         189  55    244 
  - Frozen virtual         0    0     0   
 ------------------------------------------
 Beta orbitals:
  - Frozen occupied        8    0     8   
  - Active occupied        15   5     20  
  - Active virtual         191  55    246 
  - Frozen virtual         0    0     0   
 ------------------------------------------

 Import integrals:   CPU 0.00 s  wall 0.00 s

 Import integrals:   CPU 1805.73 s  wall 767.04 s

 MP2 amplitudes:   CPU 2.75 s  wall 1.56 s

Running a double precision version
           CCSD T amplitudes will be solved using DIIS.

           Start     Size      MaxIter   EConv     TConv     
           3         7         100       1.00e-06  1.00e-04  
 ------------------------------------------------------------------------------
           Energy (a.u.)   Ediff      Tdiff       Comment
 ------------------------------------------------------------------------------
          -413.59711638                           
     1    -413.57705358   2.01e-02   9.88e-01     Step took 02.11.
     2    -413.62222542   4.52e-02   1.37e-01     
     3    -413.61934079   2.88e-03   5.19e-02     
     4    -413.62465885   5.32e-03   2.28e-02     Switched to DIIS steps.
     5    -413.62778766   3.13e-03   1.55e-02     
     6    -413.62854159   7.54e-04   6.95e-03     
     7    -413.62888325   3.42e-04   6.90e-03     
     8    -413.62901780   1.35e-04   3.75e-03     
     9    -413.62915127   1.33e-04   3.23e-03     
    10    -413.62917280   2.15e-05   1.29e-03     
    11    -413.62918420   1.14e-05   6.75e-04     
    12    -413.62919268   8.47e-06   5.78e-04     
    13    -413.62918581   6.87e-06   2.72e-04     
    14    -413.62918458   1.23e-06   1.64e-04     
    15    -413.62918008   4.50e-06   1.06e-04     
    16    -413.62917718   2.89e-06   5.88e-05     
    17    -413.62917515   2.03e-06   3.93e-05     
    18    -413.62917403   1.12e-06   2.34e-05     
    19    -413.62917332   7.16e-07   1.66e-05     
 ------------------------------------------------------------------------------
          -413.62917332                           CCSD T converged.

End of double precision
 SCF energy                 = -412.35686359
 MP2 energy                 = -413.59711638
 CCSD correlation energy    =   -1.27230972
 CCSD total energy          = -413.62917332

 CCSD  T1^2 = 0.1400  T2^2 = 0.4241  Leading amplitudes:

 Amplitude    Orbitals with energies
  0.1949       25 (A') A                 ->    26 (A') A                  
              -0.1038                         -0.0043                     
 -0.1161       25 (A') A                 ->    31 (A') A                  
              -0.1038                          0.0366                     
  0.1011       25 (A') A                 ->    29 (A') A                  
              -0.1038                          0.0234                     
  0.0751       25 (A') A                 ->    28 (A') A                  
              -0.1038                          0.0212                     

 Amplitude    Orbitals with energies
 -0.0448       3 (A") A      3 (A") B    ->    6 (A") A      6 (A") B     
              -0.5759       -0.5747           -0.0298       -0.0276       
  0.0448       3 (A") A      3 (A") B    ->    6 (A") B      6 (A") A     
              -0.5759       -0.5747           -0.0276       -0.0298       
  0.0448       3 (A") B      3 (A") A    ->    6 (A") A      6 (A") B     
              -0.5747       -0.5759           -0.0298       -0.0276       
 -0.0448       3 (A") B      3 (A") A    ->    6 (A") B      6 (A") A     
              -0.5747       -0.5759           -0.0276       -0.0298       

 Computing CCSD intermediates for later calculations in double precision
 Finished.

Running a double precision version
           CCSD Lambda amplitudes will be solved using DIIS.
           Start     Size      MaxIter   EConv     LConv     
           3         7         100       1.00e-06  1.00e-04  
 ------------------------------------------------------------------------------
            Enorm      Ldiff       Comment
 ------------------------------------------------------------------------------
     1     8.70e-02   5.27e-02     
     2     3.02e-02   9.30e-03     
     3     1.64e-02   2.29e-03     
     4     8.55e-03   2.17e-03     Switched to DIIS steps.
     5     3.82e-03   2.11e-03     
     6     2.08e-03   8.53e-04     
     7     1.05e-03   4.49e-04     
     8     6.47e-04   2.23e-04     
     9     3.53e-04   1.29e-04     
    10     2.06e-04   6.74e-05     
    11     1.29e-04   3.34e-05     
    12     7.12e-05   2.30e-05     
    13     4.48e-05   9.43e-06     
    14     2.41e-05   4.30e-06     
    15     1.33e-05   1.74e-06     
    16     8.22e-06   4.47e-07     
    17     5.00e-06   2.45e-08     
    18     3.24e-06   1.07e-07     
    19     2.06e-06   1.14e-07     
    20     1.34e-06   1.44e-07     
    21     8.81e-07   7.51e-08     
 ------------------------------------------------------------------------------
                                   CCSD Lambda converged.

 CCSD calculation:   CPU 12677.57 s  wall 14917.26 s

        Solving for CVS-EOMIP-CCSD A' transitions.

Running a double precision version
      CVS-EOMIP-CCSD/MP2 right amplitudes will be solved using Davidson.
        Amplitudes will be solved using shifted  algorithm.
     Hard-coded thresholds: 
     LinDepThresh=1.00e-15  NormThresh=1.00e-06  ReorthogonThresh=1.00e-02

      Roots     MaxVec    MaxIter   Precond   Conv      Shift    
      4         120       60        1         1.00e-05  1.05e+01  
 ------------------------------------------------------------------------------
      Iter ConvRoots NVecs ResNorm Current eigenvalues (eV)
 ------------------------------------------------------------------------------
      0    0      4     9.70e-01   308.2465   310.3537   311.7972   312.5487   
      1    0      8     2.22e+00   305.4084   307.5989   308.9864   309.7634   
      2    0      12    2.92e-02   294.3021   296.4956   298.4727   298.7515   
      3    0      16    2.15e-03   293.8461   295.9938   298.0720   298.2857   
      4    0      20    3.13e-04   293.8295   295.9602   298.0461   298.2465   
      5    1      24    1.96e-05   293.8271*  295.9513   298.0421   298.2385   
      6    4      27    6.22e-06   293.8271*  295.9511*  298.0425*  298.2384*  

     Davidson procedure converged

 EOMIP transition 1/A'
 Total energy = -402.83122491 a.u.  Excitation energy = 293.8271 eV.
 R1^2 = 0.8891  R2_CCVV^2 = 0.0018  R2_COVV^2 = 0.1100  Res^2 = 6.17e-06
 Conv-d = yes

 Amplitude    Transitions between orbitals
  0.9429       8 (A') A                  ->    infty        
  0.0028       7 (A') A                  ->    infty        
  0.0010       5 (A') A                  ->    infty        

              Summary of significant orbitals:

               Number  Type             Irrep      Energy
               5       Occ  Alpha       5 (A')    -11.5246
               7       Occ  Alpha       7 (A')    -11.4410
               8       Occ  Alpha       8 (A')    -11.3453


 EOMIP transition 2/A'
 Total energy = -402.75317176 a.u.  Excitation energy = 295.9511 eV.
 R1^2 = 0.8736  R2_CCVV^2 = 0.0018  R2_COVV^2 = 0.1255  Res^2 = 6.87e-06
 Conv-d = yes

 Amplitude    Transitions between orbitals
 -0.9347       7 (A') A                  ->    infty        
  0.0031       8 (A') A                  ->    infty        

              Summary of significant orbitals:

               Number  Type             Irrep      Energy
               7       Occ  Alpha       7 (A')    -11.4410
               8       Occ  Alpha       8 (A')    -11.3453


 EOMIP transition 3/A'
 Total energy = -402.67631185 a.u.  Excitation energy = 298.0425 eV.
 R1^2 = 0.8908  R2_CCVV^2 = 0.0018  R2_COVV^2 = 0.1083  Res^2 = 3.45e-06
 Conv-d = yes

 Amplitude    Transitions between orbitals
  0.9438       6 (A') A                  ->    infty        
 -0.0016       5 (A') A                  ->    infty        

              Summary of significant orbitals:

               Number  Type             Irrep      Energy
               5       Occ  Alpha       5 (A')    -11.5246
               6       Occ  Alpha       6 (A')    -11.4920


 EOMIP transition 4/A'
 Total energy = -402.66911462 a.u.  Excitation energy = 298.2384 eV.
 R1^2 = 0.8771  R2_CCVV^2 = 0.0018  R2_COVV^2 = 0.1220  Res^2 = 8.38e-06
 Conv-d = yes

 Amplitude    Transitions between orbitals
 -0.9365       5 (A') A                  ->    infty        
 -0.0017       6 (A') A                  ->    infty        
  0.0010       8 (A') A                  ->    infty        

              Summary of significant orbitals:

               Number  Type             Irrep      Energy
               5       Occ  Alpha       5 (A')    -11.5246
               6       Occ  Alpha       6 (A')    -11.4920
               8       Occ  Alpha       8 (A')    -11.3453


Running a double precision version
      CVS-EOMIP-CCSD/MP2 left amplitudes will be solved using Davidson.
        Amplitudes will be solved using MOM  algorithm.
     Hard-coded thresholds: 
     LinDepThresh=1.00e-15  NormThresh=1.00e-06  ReorthogonThresh=1.00e-02

      Roots     MaxVec    MaxIter   Precond   Conv      Shift    
      4         120       60        1         1.00e-05  1.05e+01  
 ------------------------------------------------------------------------------
      Iter ConvRoots NVecs ResNorm Current eigenvalues (eV)
 ------------------------------------------------------------------------------
      0    0      4     1.44e-02   294.7583   296.7196   298.7331   298.9886   
      1    0      8     3.91e-01   293.8579   295.9992   298.0772   298.2811   
      2    0      12    1.70e-02   293.8243   295.9544   298.0407   298.2381   
      3    0      16    1.56e-03   293.8298   295.9571   298.0454   298.2430   
      4    3      20    7.22e-06   293.8268*  295.9492*  298.0405*  298.2357   
      5    3      21    8.15e-06   293.8268*  295.9492*  298.0405*  298.2380   
      6    4      22    5.19e-06   293.8268*  295.9492*  298.0405*  298.2384*  

     Davidson procedure converged

 CVS-EOMIP-CCSD calculation:   CPU 91.75 s  wall 78.16 s


 Reference -- EOM-IP-CCSD state  1/A'   transition
 Energy difference = 293.8271 eV.

 Left Dyson orbital norm is 0.922672

Left alpha Dyson orbital in the MO basis (canonical Q-Chem's ordering):
0     8.9876e-07
1     6.6969e-08
2     -1.9916e-06
3     -2.3331e-06
4     1.1110e-03
5     2.5113e-05
6     3.2204e-03
7     9.9999e-01
8     -4.5059e-16
9     -2.7443e-16
10    -2.5482e-16
11    9.3690e-17
12    -3.8966e-16
13    -6.0380e-17
14    5.4236e-17
15    3.1574e-16
16    4.9873e-16
17    2.1639e-17
18    1.8357e-16
19    -1.3551e-16
20    1.2752e-16
21    -8.9661e-16
22    -5.5954e-17
23    -2.7818e-16
24    1.5959e-16
25    1.3252e-16
26    1.8161e-16
27    2.1559e-18
28    2.3128e-16
29    3.3593e-16
30    -1.6669e-16
31    -2.5523e-15
32    -2.9182e-15
33    3.9669e-17
34    2.5885e-15
35    2.2525e-15
36    3.1938e-16
37    -1.0522e-15
38    9.2213e-17
39    -6.4057e-15
40    3.1446e-15
41    -5.9763e-15
42    1.9349e-15
43    -1.0874e-14
44    -4.1279e-15
45    1.0357e-14
46    1.4823e-14
47    3.2635e-16
48    -4.1940e-15
49    -7.6430e-16
50    7.0840e-15
51    -7.3666e-17
52    3.1899e-15
53    4.5285e-16
54    -5.3415e-15
55    -5.5144e-16
56    -4.2473e-15
57    1.3335e-14
58    -2.9926e-15
59    -9.9877e-15
60    1.7780e-14
61    -8.5831e-15
62    6.0539e-15
63    -1.8923e-14
64    -2.1930e-14
65    -8.0444e-16
66    -1.6455e-16
67    -6.2431e-15
68    9.7250e-16
69    -4.5015e-15
70    3.1857e-14
71    -2.1446e-15
72    2.1913e-14
73    3.8386e-15
74    4.2914e-16
75    -1.7170e-14
76    9.2981e-16
77    -1.4254e-14
78    -2.4305e-14
79    -3.5463e-14
80    1.6179e-16
81    -3.1747e-14
82    -4.4724e-15
83    1.9881e-14
84    -9.1463e-15
85    -1.8131e-16
86    -3.3149e-14
87    -8.0222e-15
88    7.4649e-16
89    -1.1303e-14
90    1.8268e-14
91    2.5609e-14
92    1.6129e-15
93    -7.0309e-15
94    5.6941e-15
95    -1.5160e-14
96    1.5014e-15
97    3.1454e-14
98    1.5036e-14
99    -2.2071e-15
100   -7.6283e-15
101   1.3239e-15
102   -2.2412e-14
103   -1.0395e-14
104   -1.0869e-14
105   2.3143e-14
106   1.3388e-14
107   1.0665e-14
108   2.0621e-14
109   -9.9636e-16
110   -1.5828e-14
111   4.9014e-17
112   5.0267e-16
113   -1.4346e-15
114   -1.0920e-14
115   7.7087e-16
116   5.9491e-16
117   -2.0544e-14
118   -1.2887e-14
119   -7.4275e-15
120   1.2751e-14
121   1.1040e-14
122   -1.0624e-15
123   -9.7282e-15
124   1.7486e-14
125   1.8250e-15
126   1.5627e-16
127   -1.2897e-14
128   1.0079e-15
129   -1.1724e-16
130   4.4469e-15
131   -7.9847e-15
132   1.9273e-17
133   -1.2394e-16
134   3.2223e-16
135   1.0004e-14
136   4.8907e-15
137   2.9863e-16
138   4.7004e-15
139   2.9859e-16
140   -2.2690e-15
141   -2.3581e-15
142   -7.3077e-17
143   1.5293e-16
144   -6.1071e-16
145   -8.5606e-15
146   3.9166e-16
147   -1.8601e-14
148   -1.1597e-16
149   1.7509e-14
150   4.1349e-15
151   2.8097e-15
152   -3.2615e-15
153   2.4219e-17
154   -3.1923e-15
155   1.6283e-16
156   1.6424e-15
157   -6.0595e-15
158   2.6921e-17
159   -1.7598e-15
160   -2.0732e-15
161   4.3713e-17
162   -5.2904e-15
163   -5.1699e-15
164   -1.1520e-15
165   -3.2871e-15
166   2.5161e-15
167   4.2033e-16
168   -6.0752e-15
169   -2.3850e-15
170   1.5912e-15
171   -1.0245e-16
172   -3.1591e-15
173   1.7705e-16
174   1.8013e-15
175   -5.8496e-16
176   -1.5029e-15
177   7.8791e-17
178   8.0368e-16
179   2.1442e-16
180   -1.6117e-15
181   -4.1349e-15
182   -9.5767e-15
183   2.2997e-15
184   1.7716e-15
185   6.6040e-17
186   2.8952e-15
187   -2.1460e-16
188   -7.8040e-15
189   3.9659e-16
190   -3.3420e-15
191   -4.6129e-16
192   2.0019e-15
193   -2.7152e-15
194   -2.7004e-16
195   7.5156e-16
196   5.6132e-17
197   3.6744e-15
198   1.6188e-16
199   7.0352e-17
200   -1.7789e-15
201   -1.4945e-15
202   -8.7714e-17
203   1.9332e-17
204   5.1179e-15
205   -2.9537e-15
206   -2.0062e-16
207   2.7406e-15
208   3.9139e-15
209   -2.5633e-15
210   5.5296e-15
211   2.0081e-16
212   -3.6936e-17
213   3.2573e-16
214   -9.7816e-16
215   1.3248e-15
216   1.1212e-15
217   -2.6141e-16
218   9.1060e-16
219   6.7152e-16
220   -8.3287e-17
221   1.8277e-15
222   4.1503e-16
223   -1.9762e-17
224   3.6038e-15
225   5.9607e-16
226   -5.3435e-16
227   -3.7763e-15
228   2.6566e-15
229   6.4925e-15
230   4.2735e-15
231   -5.5159e-17
232   -8.7434e-16
233   -2.1218e-15
234   -1.7806e-15
235   -3.6588e-16
236   -1.0141e-15
237   -3.3808e-15
238   1.3987e-15
239   1.3186e-16
240   -1.4762e-15
241   1.1015e-15
242   2.0780e-15
243   -1.0603e-15
244   -1.3125e-15
245   -4.0434e-15
246   -3.5558e-16
247   2.1605e-16
248   -5.9640e-16
249   -3.7978e-16
250   -5.7469e-16
251   -4.8947e-16
252   1.0923e-15
253   -1.6892e-15
254   1.1457e-16
255   -3.5614e-16
256   5.9064e-16
257   8.2377e-17
258   2.5904e-16
259   1.9658e-16
260   6.4694e-16
261   -7.1330e-16
262   6.7621e-17
263   2.7330e-16
264   -5.7708e-16
265   4.5144e-17
266   2.9675e-16
267   3.9343e-17
268   -3.5335e-16
269   6.4242e-16
270   2.6549e-16
271   -5.2578e-18
272   -1.5680e-17
273   1.4189e-17

Decomposition over AOs for the left alpha Dyson orbital:
1.11291009e-05
8.62106308e-05
4.29799099e-04
1.47742184e-03
3.48094429e-03
1.33682880e-03
4.73605845e-03
-1.23388579e-04
-5.50003977e-05
1.75764092e-15
-4.96041125e-04
-5.10461325e-04
-3.20494361e-04
3.09653431e-15
9.96734246e-04
2.10874420e-04
7.06087048e-04
3.67312500e-15
4.82618778e-03
4.11827048e-04
2.00235230e-03
7.81917767e-15
4.00609750e-04
-7.83891121e-05
2.76853562e-04
-5.87841404e-14
-2.86448959e-04
5.50398582e-16
4.01821929e-05
-6.00482598e-16
-1.71108132e-04
-8.26407979e-06
-4.22350337e-05
-1.08126510e-04
-3.46423413e-04
-9.88835635e-06
1.78102798e-06
6.30071849e-16
-1.69705142e-05
-4.21351520e-05
4.51919647e-04
1.00687430e-03
-6.12065936e-05
-5.58143547e-05
1.05131676e-15
-6.74232348e-06
-7.75331854e-05
1.23518610e-04
-6.14422940e-05
-1.03372276e-05
1.06708812e-05
-2.72358727e-16
-6.41842003e-08
-5.20256678e-07
-2.42673454e-06
-8.98688941e-06
-1.50475331e-05
1.87749256e-05
-4.19944180e-05
4.19982355e-06
-3.56468764e-06
-5.64466692e-16
-6.85193177e-05
-1.39842862e-05
1.42286432e-05
2.13458603e-15
4.98026390e-04
4.72967903e-04
-2.74567051e-04
-4.35107085e-15
-7.67796660e-04
-1.35572087e-04
2.86491365e-04
4.51341777e-15
-7.55134417e-04
-2.60914353e-05
6.30408014e-05
4.44227796e-14
-6.20083807e-06
-1.47098484e-15
-9.44999749e-06
[...]
210   -2.4942e-15
211   -3.6184e-16
212   -8.8118e-17
213   -3.6835e-15
214   3.6772e-15
215   -1.8908e-16
216   2.9896e-15
217   8.2890e-16
218   8.4415e-16
219   5.9814e-16
220   4.3587e-16
221   -2.3731e-15
222   -3.6151e-15
223   8.8785e-17
224   2.1308e-15
225   1.3245e-15
226   1.2483e-15
227   -1.1699e-15
228   -8.3475e-16
229   3.8695e-15
230   -8.0307e-16
231   4.5308e-16
232   -5.5444e-16
233   4.7464e-16
234   -1.3747e-15
235   -1.2100e-15
236   1.7237e-16
237   5.1617e-17
238   -2.1279e-16
239   -4.3884e-16
240   -2.2689e-16
241   -5.2559e-16
242   5.8507e-16
243   -1.4462e-15
244   6.9566e-16
245   -4.2773e-16
246   -4.6746e-16
247   -5.4922e-16
248   -5.2673e-16
249   -4.8966e-16
250   8.1055e-16
251   1.0595e-15
252   -4.4887e-16
253   1.6480e-16
254   -3.6162e-16
255   2.2631e-16
256   3.0996e-16
257   3.5710e-16
258   1.0030e-15
259   2.5492e-16
260   4.6055e-16
261   -1.4273e-16
262   2.6162e-16
263   -1.9723e-17
264   -1.1306e-16
265   8.5610e-16
266   3.3451e-16
267   2.4553e-16
268   -4.0703e-16
269   -1.1598e-16
270   -7.9987e-16
271   -6.1574e-16
272   4.6143e-16
273   9.0899e-18

Decomposition over AOs for the right alpha Dyson orbital:
-8.71735575e-08
-7.28687085e-07
-3.24490836e-06
-1.26585055e-05
-1.58891296e-05
4.72157903e-05
-6.97358797e-05
1.54305983e-05
2.18503552e-05
2.04090361e-16
-9.03337365e-05
-8.87128767e-05
-1.14348273e-04
1.28466217e-15
-1.16779825e-04
-1.77893989e-05
-2.20231013e-04
1.60936265e-15
1.81835225e-03
2.89104783e-05
6.51811191e-04
1.43726223e-14
6.31101197e-04
-1.56493092e-04
3.28035473e-04
-2.44798440e-14
-6.45112433e-05
-2.01865604e-16
1.00202968e-05
6.54102358e-16
-6.05437055e-08
-9.67997008e-06
4.75820935e-05
-3.25570024e-04
-1.96596558e-04
-1.87219733e-06
9.02233930e-07
-3.21349214e-17
7.64498169e-06
-1.13842375e-04
2.88302884e-05
7.38295240e-05
-1.43326841e-05
-1.95466785e-05
2.89105085e-16
-3.24813485e-05
-2.72041204e-05
-2.03946052e-04
-8.19784356e-05
-1.21477089e-05
3.83119477e-05
-5.48073940e-16
2.25437522e-06
1.74135756e-05
8.71462279e-05
2.98120774e-04
7.14787022e-04
3.02719378e-04
9.19184217e-04
2.27819165e-05
1.54815908e-07
-1.37524106e-15
-7.81942200e-05
-7.39535174e-05
-2.69789452e-06
-4.76113113e-15
1.47483828e-04
2.92909982e-04
2.16949040e-05
4.94193608e-16
-5.28108833e-04
-4.27795887e-05
6.96014706e-04
1.50205197e-14
-2.12244553e-03
-2.54238926e-04
-9.88787889e-05
3.76221719e-15
-1.53621270e-05
-5.81995068e-16
1.87915123e-06
4.39631625e-16
-4.55185410e-05
8.96850956e-10
-4.48183245e-09
5.98235001e-08
-1.03666485e-07
2.68543748e-06
1.08298919e-05
-6.22216439e-06
2.23287475e-06
-1.02227616e-06
-1.58841062e-15
-2.71059513e-05
-2.18033278e-05
1.15055233e-06
-2.36034320e-15
6.92884231e-05
3.65484847e-05
-4.36930150e-05
-3.72181579e-15
2.61097088e-04
8.34533588e-05
-7.66119599e-06
-6.16868109e-15
-1.74871730e-03
-4.45347748e-04
-2.33687192e-04
-6.27222457e-15
-2.97187112e-06
9.41081988e-17
-1.24519430e-06
-5.16616095e-16
-6.67920236e-06
-1.10968189e-03
-8.59064846e-03
-4.28547992e-02
-1.47127004e-01
-3.47556569e-01
-1.26050208e-01
-4.65768048e-01
-2.78006670e-04
-1.39120775e-03
6.77051274e-16
-1.59214826e-03
1.72282110e-04
1.23473337e-03
-1.67141258e-15
-1.93306638e-03
-1.39066250e-04
-9.61062192e-04
2.29533756e-15
2.27671223e-03
-1.15955608e-03
-3.17109741e-03
9.60467997e-15
9.09809700e-04
-2.68973885e-04
5.26233684e-04
2.65676205e-14
-9.21129922e-06
-3.74631606e-16
2.93653575e-04
1.16000287e-16
3.54891152e-04
1.99682674e-07
1.34432278e-06
7.94898002e-06
2.22746463e-05
1.01158748e-04
2.27509869e-04
2.46238556e-05
9.94890254e-05
7.25071527e-05
-4.46402206e-16
-5.09247522e-04
5.65529693e-04
4.19359920e-04
7.00660441e-16
-1.00820749e-04
-1.07197129e-04
-1.00905079e-05
-1.71236541e-15
1.96922877e-03
-4.02518716e-04
-2.09238527e-04
4.35015111e-16
5.59586209e-03
-1.16010331e-03
-2.60680898e-04
-1.99851769e-15
-2.59699952e-04
-1.55240335e-16
1.35260425e-04
2.06318383e-16
-7.54172957e-05
2.82537783e-07
1.99130573e-06
1.10136730e-05
3.30043256e-05
1.21830063e-04
2.33964709e-04
6.33514638e-05
-5.55721006e-05
4.32705982e-05
-1.27351502e-15
-5.43327998e-04
-6.00965630e-04
3.38423226e-04
-1.07286346e-15
1.81216843e-04
3.03096282e-04
4.25214369e-05
-5.08273420e-15
8.35074261e-04
8.41182497e-04
2.46723033e-04
-5.66646964e-15
-1.00453183e-03
-2.75530676e-03
9.22690633e-06
-2.58536340e-14
2.69956336e-04
-2.75845160e-16
8.70140286e-05
3.77778507e-16
-1.46952213e-04
-3.84849661e-09
-6.73698124e-08
-5.70776672e-08
-1.25171223e-06
6.48402832e-06
3.39568506e-05
-2.41297526e-05
6.66736024e-06
4.13462629e-06
-7.75162900e-17
-6.95427609e-05
-2.00267342e-05
-1.77123232e-05
-2.20706744e-15
1.64971610e-04
5.83928170e-05
3.19380729e-05
4.08659778e-15
3.18023400e-04
-6.08543338e-04
5.80217534e-05
-2.24969086e-14
-8.62674086e-04
1.66785093e-04
-3.20500111e-04
2.10873057e-14
2.39785693e-06
-2.28818516e-16
5.97772935e-06
1.95776155e-16
5.94338312e-06
-4.58979967e-06
-3.53550782e-05
-1.77545291e-04
-6.04414103e-04
-1.47153563e-03
-6.46840912e-04
-1.78184324e-03
5.45919128e-06
-1.48753149e-04
9.87747535e-16
-5.03943723e-05
-3.88425671e-05
-1.21996084e-04
2.80792212e-16
1.97609665e-04
-1.92399983e-04
1.37173549e-04
1.64316342e-15
-7.12957249e-03
5.03171167e-04
-1.60355528e-03
-1.24748842e-14
7.10200195e-04
8.54083357e-05
-1.82219877e-04
1.58262541e-15
-1.13761547e-05
2.42390910e-16
-7.21010413e-05
1.46400586e-16
1.44505189e-04
-1.71130402e-05
-5.11086169e-05
1.86977038e-04
-3.86654513e-04
2.55123229e-05
-6.67045013e-05
4.58875350e-16
   *****

     End transition

 Dyson orbitals calculation:   CPU 0.23 s  wall 0.30 s

 Total ccman2 time:   CPU 14612.73 s  wall 15776.00 s


 --------------------------------------------------------------
             Orbital Energies (a.u.) and Symmetries
 --------------------------------------------------------------

 Alpha MOs, Unrestricted
 -- Occupied --                  
-20.805 -20.606 -15.741 -15.717 -11.525 -11.492 -11.441 -11.345
  1 A'    2 A'    3 A'    4 A'    5 A'    6 A'    7 A'    8 A'                 
 -1.597  -1.492  -1.382  -1.334  -1.181  -1.026  -0.997  -0.895
  9 A'   10 A'   11 A'   12 A'   13 A'   14 A'   15 A'   16 A'                 
 -0.865  -0.828  -0.790  -0.777  -0.772  -0.716  -0.705  -0.696
 17 A'   18 A'   19 A'   20 A'    1 A"   21 A'    2 A"   22 A'                 
 -0.667  -0.576  -0.561  -0.534  -0.449  -0.104
 23 A'    3 A"    4 A"   24 A'    5 A"   25 A'                                 
 -- Virtual --                   
 -0.030  -0.004   0.008   0.008   0.021   0.023   0.027   0.029
  6 A"   26 A'   27 A'    7 A"   28 A'   29 A'   30 A'    8 A"                 
  0.032   0.037   0.040   0.045   0.048   0.050   0.051   0.056
  9 A"   31 A'   32 A'   33 A'   34 A'   35 A'   10 A"   36 A'                 
  0.058   0.058   0.066   0.072   0.072   0.074   0.077   0.085
 37 A'   11 A"   38 A'   12 A"   39 A'   13 A"   40 A'   14 A"                 
  0.088   0.099   0.101   0.108   0.109   0.114   0.123   0.127
 41 A'   42 A'   43 A'   44 A'   15 A"   45 A'   46 A'   47 A'                 
  0.132   0.136   0.140   0.151   0.165   0.166   0.173   0.175
 48 A'   49 A'   50 A'   16 A"   17 A"   51 A'   18 A"   52 A'                 
  0.187   0.196   0.202   0.210   0.210   0.216   0.225   0.226
 53 A'   54 A'   55 A'   56 A'   19 A"   57 A'   20 A"   58 A'                 
  0.233   0.241   0.247   0.252   0.260   0.267   0.288   0.298
 59 A'   60 A'   21 A"   61 A'   62 A'   63 A'   64 A'   22 A"                 
  0.307   0.315   0.320   0.333   0.340   0.344   0.371   0.376
 65 A'   66 A'   23 A"   67 A'   68 A'   69 A'   70 A'   71 A'                 
  0.379   0.386   0.387   0.406   0.411   0.420   0.434   0.441
 72 A'   73 A'   24 A"   74 A'   75 A'   76 A'   77 A'   78 A'                 
  0.449   0.491   0.507   0.529   0.567   0.584   0.619   0.670
 79 A'   80 A'   81 A'   82 A'   83 A'   84 A'   85 A'   86 A'                 
  0.683   0.690   0.707   0.712   0.726   0.739   0.757   0.817
 87 A'   25 A"   26 A"   88 A'   89 A'   27 A"   28 A"   90 A'                 
  0.820   0.873   0.884   0.896   0.925   0.935   0.945   0.955
 91 A'   92 A'   93 A'   94 A'   95 A'   96 A'   97 A'   98 A'                 
  0.982   0.992   1.016   1.032   1.034   1.090   1.149   1.156
 29 A"   99 A'  100 A'   30 A"  101 A'  102 A'   31 A"   32 A"                 
  1.184   1.203   1.206   1.221   1.290   1.300   1.311   1.321
103 A'  104 A'  105 A'   33 A"  106 A'   34 A"  107 A'  108 A'                 
  1.337   1.359   1.378   1.420   1.447   1.468   1.504   1.524
 35 A"   36 A"   37 A"  109 A'   38 A"  110 A'  111 A'  112 A'                 
  1.670   1.679   1.713   1.749   1.780   1.786   1.819   1.839
113 A'  114 A'  115 A'   39 A"  116 A'   40 A"  117 A'  118 A'                 
  1.862   1.881   1.909   1.955   1.960   2.026   2.057   2.118
 41 A"  119 A'  120 A'   42 A"  121 A'  122 A'  123 A'  124 A'                 
  2.145   2.148   2.203   2.235   2.254   2.264   2.402   2.466
125 A'   43 A"  126 A'  127 A'  128 A'   44 A"  129 A'   45 A"                 
  2.517   2.552   2.569   2.651   2.725   2.733   2.756   2.847
130 A'   46 A"  131 A'   47 A"  132 A'   48 A"  133 A'  134 A'                 
  2.885   2.903   2.931   2.957   2.994   3.016   3.050   3.063
135 A'  136 A'  137 A'   49 A"  138 A'   50 A"  139 A'   51 A"                 
  3.089   3.111   3.120   3.177   3.237   3.238   3.248   3.263
140 A'   52 A"  141 A'  142 A'   53 A"  143 A'   54 A"  144 A'                 
  3.360   3.424   3.453   3.557   3.592   3.695   3.725   3.804
145 A'   55 A"  146 A'  147 A'  148 A'   56 A"  149 A'  150 A'                 
  3.871   3.889   3.908   4.015   4.122   4.223   4.277   4.334
151 A'  152 A'  153 A'  154 A'  155 A'   57 A"   58 A"  156 A'                 
  4.371   4.464   4.916   5.030   5.223   5.357   5.392   5.402
157 A'  158 A'  159 A'  160 A'  161 A'  162 A'   59 A"  163 A'                 
  5.483   5.573   5.589   5.627   5.763   5.787   6.130   6.381
164 A'   60 A"  165 A'  166 A'  167 A'  168 A'  169 A'  170 A'                 
  7.560   7.621   9.491   9.842  20.536  20.593  20.627  20.798
171 A'  172 A'  173 A'  174 A'  175 A'  176 A'  177 A'  178 A'                 
 30.093  30.126  40.546  40.845  80.082  80.136  80.165  80.330
179 A'  180 A'  181 A'  182 A'  183 A'  184 A'  185 A'  186 A'                 
116.214 116.242 158.922 159.188 321.905 321.954 321.987 322.137
187 A'  188 A'  189 A'  190 A'  191 A'  192 A'  193 A'  194 A'                 
460.314 460.341 631.642 631.8851431.4591431.5031431.5411431.677
195 A'  196 A'  197 A'  198 A'  199 A'  200 A'  201 A'  202 A'                 
*******2012.8152759.0532759.2818749.6808749.7198749.7638749.885
203 A'  204 A'  205 A'  206 A'  207 A'  208 A'  209 A'  210 A'                 
*******************************
211 A'  212 A'  213 A'  214 A'                                                 

 Beta MOs, Unrestricted
 -- Occupied --                  
-20.763 -20.606 -15.739 -15.717 -11.527 -11.492 -11.440 -11.344
  1 A'    2 A'    3 A'    4 A'    5 A'    6 A'    7 A'    8 A'                 
 -1.501  -1.463  -1.369  -1.321  -1.172  -1.015  -0.978  -0.882
  9 A'   10 A'   11 A'   12 A'   13 A'   14 A'   15 A'   16 A'                 
 -0.835  -0.796  -0.786  -0.749  -0.715  -0.692  -0.684  -0.671
 17 A'   18 A'   19 A'    1 A"   20 A'   21 A'    2 A"   22 A'                 
 -0.575  -0.551  -0.533  -0.447
  3 A"    4 A"   23 A'    5 A"                                                 
 -- Virtual --                   
 -0.053  -0.028  -0.001   0.014   0.016   0.019   0.030   0.030
 24 A'    6 A"   25 A'   26 A'    7 A"   27 A'   28 A'   29 A'                 
  0.033   0.034   0.040   0.041   0.046   0.050   0.054   0.057
  8 A"   30 A'    9 A"   31 A'   32 A'   33 A'   34 A'   10 A"                 
  0.057   0.060   0.062   0.066   0.074   0.077   0.080   0.081
 35 A'   36 A'   11 A"   37 A'   12 A"   38 A'   13 A"   39 A'                 
  0.088   0.090   0.093   0.103   0.105   0.110   0.113   0.118
 40 A'   14 A"   41 A'   42 A'   43 A'   15 A"   44 A'   45 A'                 
  0.128   0.129   0.138   0.142   0.150   0.159   0.172   0.173
 46 A'   47 A'   48 A'   49 A'   50 A'   16 A"   17 A"   51 A'                 
  0.181   0.182   0.197   0.205   0.209   0.214   0.216   0.224
 18 A"   52 A'   53 A'   54 A'   55 A'   19 A"   56 A'   57 A'                 
  0.227   0.235   0.237   0.246   0.250   0.259   0.266   0.272
 20 A"   58 A'   59 A'   60 A'   21 A"   61 A'   62 A'   63 A'                 
  0.293   0.304   0.311   0.323   0.326   0.341   0.343   0.347
 64 A'   22 A"   65 A'   66 A'   23 A"   67 A'   68 A'   69 A'                 
  0.377   0.381   0.388   0.389   0.395   0.413   0.419   0.429
 70 A'   71 A'   24 A"   72 A'   73 A'   74 A'   75 A'   76 A'                 
  0.437   0.449   0.460   0.503   0.513   0.537   0.572   0.587
 77 A'   78 A'   79 A'   80 A'   81 A'   82 A'   83 A'   84 A'                 
  0.623   0.673   0.689   0.691   0.708   0.717   0.737   0.741
 85 A'   86 A'   87 A'   25 A"   26 A"   88 A'   89 A'   27 A"                 
  0.758   0.819   0.823   0.875   0.889   0.899   0.929   0.938
 28 A"   90 A'   91 A'   92 A'   93 A'   94 A'   95 A'   96 A'                 
  0.949   0.959   0.983   0.993   1.020   1.033   1.038   1.091
 97 A'   98 A'   29 A"   99 A'  100 A'   30 A"  101 A'  102 A'                 
  1.149   1.158   1.188   1.207   1.210   1.237   1.300   1.303
 31 A"   32 A"  103 A'  104 A'  105 A'   33 A"   34 A"  106 A'                 
  1.324   1.338   1.359   1.379   1.395   1.439   1.447   1.472
107 A'   35 A"   36 A"   37 A"  108 A'  109 A'   38 A"  110 A'                 
  1.507   1.530   1.673   1.685   1.717   1.749   1.787   1.790
111 A'  112 A'  113 A'  114 A'  115 A'   39 A"   40 A"  116 A'                 
  1.827   1.845   1.863   1.885   1.918   1.955   1.962   2.028
117 A'  118 A'   41 A"  119 A'  120 A'   42 A"  121 A'  122 A'                 
  2.058   2.119   2.149   2.150   2.204   2.240   2.260   2.265
123 A'  124 A'  125 A'   43 A"  126 A'  127 A'  128 A'   44 A"                 
  2.405   2.469   2.524   2.554   2.575   2.652   2.728   2.740
129 A'   45 A"  130 A'   46 A"  131 A'   47 A"  132 A'   48 A"                 
  2.761   2.861   2.887   2.919   2.940   2.985   2.995   3.056
133 A'  134 A'  135 A'  136 A'  137 A'   49 A"  138 A'   50 A"                 
  3.087   3.108   3.109   3.115   3.155   3.190   3.238   3.240
139 A'  140 A'   51 A"   52 A"  141 A'  142 A'   53 A"  143 A'                 
  3.251   3.266   3.370   3.442   3.464   3.569   3.642   3.695
 54 A"  144 A'  145 A'   55 A"  146 A'  147 A'  148 A'   56 A"                 
  3.727   3.808   3.875   3.890   3.911   4.017   4.131   4.223
149 A'  150 A'  151 A'  152 A'  153 A'  154 A'  155 A'   57 A"                 
  4.277   4.337   4.376   4.475   4.918   5.033   5.224   5.360
 58 A"  156 A'  157 A'  158 A'  159 A'  160 A'  161 A'  162 A'                 
  5.420   5.433   5.573   5.578   5.594   5.628   5.763   5.789
 59 A"  163 A'   60 A"  164 A'  165 A'  166 A'  167 A'  168 A'                 
  6.151   6.381   7.562   7.622   9.539   9.842  20.535  20.593
169 A'  170 A'  171 A'  172 A'  173 A'  174 A'  175 A'  176 A'                 
 20.628  20.799  30.094  30.126  40.568  40.845  80.081  80.136
177 A'  178 A'  179 A'  180 A'  181 A'  182 A'  183 A'  184 A'                 
 80.166  80.330 116.214 116.243 158.929 159.188 321.905 321.954
185 A'  186 A'  187 A'  188 A'  189 A'  190 A'  191 A'  192 A'                 
321.987 322.138 460.315 460.341 631.644 631.8851431.4591431.503
193 A'  194 A'  195 A'  196 A'  197 A'  198 A'  199 A'  200 A'                 
*******1431.6772012.7902012.8152759.0542759.2818749.6808749.719
201 A'  202 A'  203 A'  204 A'  205 A'  206 A'  207 A'  208 A'                 
*******8749.885********************************
209 A'  210 A'  211 A'  212 A'  213 A'  214 A'                                 
 --------------------------------------------------------------

          Ground-State Mulliken Net Atomic Charges

     Atom                 Charge (a.u.)    Spin (a.u.)
  --------------------------------------------------------
      1 C                     0.492095      -0.428839
      2 H                     0.156170       0.264258
      3 H                    -0.074740       0.375500
      4 H                     0.365274       0.031465
      5 C                     0.013707       0.210065
      6 O                     0.126746      -0.156329
      7 C                    -0.200216      -0.057216
      8 O                     0.421206       1.119191
      9 N                    -0.572653       0.055398
     10 N                    -0.180614      -0.155241
     11 C                    -0.782690       0.657939
     12 H                     0.235714       0.083808
  --------------------------------------------------------
  Sum of atomic charges =    -0.000000
  Sum of spin   charges =     2.000000

 -----------------------------------------------------------------
                    Cartesian Multipole Moments
 -----------------------------------------------------------------
    Charge (ESU x 10^10)
                 0.0000
    Dipole Moment (Debye)
         X       4.6168      Y       7.5058      Z      -0.0000
       Tot       8.8120
    Quadrupole Moments (Debye-Ang)
        XX     -66.9844     XY      -0.2234     YY     -82.9671
        XZ      -0.0000     YZ       0.0000     ZZ     -68.7527
    Octopole Moments (Debye-Ang^2)
       XXX      36.6189    XXY      40.5114    XYY      25.8466
       YYY     238.9304    XXZ      -0.0000    XYZ      -0.0000
       YYZ      -0.0000    XZZ       4.1772    YZZ      59.2383
       ZZZ      -0.0000
    Hexadecapole Moments (Debye-Ang^3)
      XXXX    -974.2811   XXXY     -32.6897   XXYY    -433.4732
      XYYY     -86.2625   YYYY   -1633.2881   XXXZ      -0.0000
      XXYZ       0.0000   XYYZ      -0.0000   YYYZ       0.0000
      XXZZ    -227.7785   XYZZ     -18.3053   YYZZ    -319.1107
      XZZZ      -0.0000   YZZZ       0.0000   ZZZZ    -385.8473
 -----------------------------------------------------------------
Archival summary:
1\1\n-62-23-18\SP\ProcedureUnspecified\BasisUnspecified\2244(3)\malop\WedJun1222:43:572019WedJun1222:43:572019\0\\#,ProcedureUnspecified,BasisUnspecified,\\0,3\N\H,1,1.01174\C,1,1.39692,2,116.099\O,3,1.22316,1,121.624,2,0,0\N,3,1.37862,1,114.479,2,180,0\H,5,1.01098,3,114.402,1,-180,0\C,1,1.40814,2,121.019,3,-180,0\O,7,1.34844,1,113.229,2,-0,0\C,7,1.40058,1,120.552,2,180,0\H,9,1.08957,7,120.34,1,180,0\C,9,1.38526,7,118.052,1,0,0\H,11,1.08813,9,124.089,7,180,0\\HF=-412.356864\\@

 Total job time:  15862.66s(wall), 14864.87s(cpu) 
 Wed Jun 12 22:43:57 2019

======= MOLDEN-FORMATTED INPUT FILE FOLLOWS =======
[Molden Format]
[Atoms] (Angs)
  C      1    6     -0.00754183     -1.75895763      0.00000000
  H      2    1     -2.09769850     -1.41880678     -0.00000000
  H      3    1     -0.13527422     -2.83956838     -0.00000000
  H      4    1      0.04053511      2.02026369      0.00000000
  C      5    6     -1.22066484      0.39918184     -0.00000000
  O      6    8     -2.25210141      1.05663720     -0.00000000
  C      7    6      1.24009552      0.27789184      0.00000000
  O      8    8      2.33767996      1.06122493      0.00000000
  N      9    7      0.03634586      1.00852936      0.00000000
  N     10    7     -1.18738304     -0.97903470     -0.00000000
  C     11    6      1.22288875     -1.12258096      0.00000000
  H     12    1      2.15640383     -1.68445878      0.00000000

======= END OF MOLDEN-FORMATTED INPUT FILE =======


        *************************************************************
        *                                                           *
        *  Thank you very much for using Q-Chem.  Have a nice day.  *
        *                                                           *
        *************************************************************


