                  Welcome to Q-Chem
     A Quantum Leap Into The Future Of Chemistry


 Q-Chem 5.2 (devel), Q-Chem, Inc., Pleasanton, CA (2019)

 Yihan Shao,  Zhengting Gan,  E. Epifanovsky,  A. T. B. Gilbert,  M. Wormit,  
 J. Kussmann,  A. W. Lange,  A. Behn,  Jia Deng,  Xintian Feng,  D. Ghosh,  
 M. Goldey,  P. R. Horn,  L. D. Jacobson,  I. Kaliman,  T. Kus,  A. Landau,  
 Jie Liu,  E. I. Proynov,  R. M. Richard,  R. P. Steele,  E. J. Sundstrom,  
 H. L. Woodcock III,  P. M. Zimmerman,  D. Zuev,  B. Albrecht,  E. Alguire,  
 S. A. Baeppler,  D. Barton,  Z. Benda,  Y. A. Bernard,  E. J. Berquist,  
 K. B. Bravaya,  H. Burton,  D. Casanova,  Chun-Min Chang,  Yunqing Chen,  
 A. Chien,  K. D. Closser,  M. P. Coons,  S. Coriani,  S. Dasgupta,  
 A. L. Dempwolff,  M. Diedenhofen,  Hainam Do,  R. G. Edgar,  Po-Tung Fang,  
 S. Faraji,  S. Fatehi,  Qingguo Feng,  K. D. Fenk,  J. Fosso-Tande,  
 J. Gayvert,  Qinghui Ge,  A. Ghysels,  G. Gidofalvi,  J. Gomes,  
 J. Gonthier,  A. Gunina,  D. Hait,  M. W. D. Hanson-Heine,  
 P. H. P. Harbach,  A. W. Hauser,  M. F. Herbst,  J. E. Herr,  
 E. G. Hohenstein,  Z. C. Holden,  Kerwin Hui,  B. C. Huynh,  T.-C. Jagau,  
 Hyunjun Ji,  B. Kaduk,  K. Khistyaev,  Jaehoon Kim,  P. Klunzinger,  K. Koh,  
 D. Kosenkov,  L. Koulias,  T. Kowalczyk,  C. M. Krauter,  A. Kunitsa,  
 Ka Un Lao,  A. Laurent,  K. V. Lawler,  Joonho Lee,  D. Lefrancois,  
 S. Lehtola,  D. S. Levine,  Yi-Pei Li,  You-Sheng Lin,  Fenglai Liu,  
 E. Livshits,  A. Luenser,  P. Manohar,  E. Mansoor,  S. F. Manzer,  
 Shan-Ping Mao,  Yuezhi Mao,  N. Mardirossian,  A. V. Marenich,  
 T. Markovich,  L. A. Martinez-Martinez,  S. A. Maurer,  N. J. Mayhall,  
 S. C. McKenzie,  J.-M. Mewes,  P. Morgante,  A. F. Morrison,  
 J. W. Mullinax,  K. Nanda,  T. S. Nguyen-Beck,  R. Olivares-Amaya,  
 J. A. Parkhill,  Zheng Pei,  T. M. Perrine,  F. Plasser,  P. Pokhilko,  
 S. Prager,  A. Prociuk,  E. Ramos,  D. R. Rehn,  F. Rob,  M. Scheurer,  
 M. Schneider,  N. Sergueev,  S. M. Sharada,  S. Sharma,  D. W. Small,  
 T. Stauch,  T. Stein,  Yu-Chuan Su,  A. J. W. Thom,  A. Tkatchenko,  
 T. Tsuchimochi,  N. M. Tubman,  L. Vogt,  M. L. Vidal,  O. Vydrov,  
 M. A. Watson,  J. Wenzel,  M. de Wergifosse,  T. A. Wesolowski,  A. White,  
 J. Witte,  A. Yamada,  Jun Yang,  K. Yao,  S. Yeganeh,  S. R. Yost,  
 Zhi-Qiang You,  A. Zech,  Igor Ying Zhang,  Xing Zhang,  Yan Zhao,  
 Ying Zhu,  B. R. Brooks,  G. K. L. Chan,  C. J. Cramer,  M. S. Gordon,  
 W. J. Hehre,  A. Klamt,  M. W. Schmidt,  C. D. Sherrill,  D. G. Truhlar,  
 A. Aspuru-Guzik,  R. Baer,  A. T. Bell,  N. A. Besley,  Jeng-Da Chai,  
 A. E. DePrince, III,  R. A. DiStasio Jr.,  A. Dreuw,  B. D. Dunietz,  
 T. R. Furlani,  Chao-Ping Hsu,  Yousung Jung,  Jing Kong,  D. S. Lambrecht,  
 WanZhen Liang,  C. Ochsenfeld,  V. A. Rassolov,  L. V. Slipchenko,  
 J. E. Subotnik,  T. Van Voorhis,  J. M. Herbert,  A. I. Krylov,  
 P. M. W. Gill,  M. Head-Gordon

 Contributors to earlier versions of Q-Chem not listed above: 
 R. D. Adamson,  B. Austin,  J. Baker,  G. J. O. Beran,  K. Brandhorst,  
 S. T. Brown,  E. F. C. Byrd,  A. K. Chakraborty,  C.-L. Cheng,  
 Siu Hung Chien,  D. M. Chipman,  D. L. Crittenden,  H. Dachsel,  
 R. J. Doerksen,  A. D. Dutoi,  L. Fusti-Molnar,  W. A. Goddard III,  
 A. Golubeva-Zadorozhnaya,  S. R. Gwaltney,  G. Hawkins,  A. Heyden,  
 S. Hirata,  G. Kedziora,  F. J. Keil,  C. Kelley,  Jihan Kim,  R. A. King,  
 R. Z. Khaliullin,  P. P. Korambath,  W. Kurlancheek,  A. M. Lee,  M. S. Lee,  
 S. V. Levchenko,  Ching Yeh Lin,  D. Liotard,  R. C. Lochan,  I. Lotan,  
 P. E. Maslen,  N. Nair,  D. P. O'Neill,  D. Neuhauser,  E. Neuscamman,  
 C. M. Oana,  R. Olson,  B. Peters,  R. Peverati,  P. A. Pieniazek,  
 Y. M. Rhee,  J. Ritchie,  M. A. Rohrdanz,  E. Rosta,  N. J. Russ,  
 H. F. Schaefer III,  N. E. Schultz,  N. Shenvi,  A. C. Simmonett,  A. Sodt,  
 D. Stuck,  K. S. Thanthiriwatte,  V. Vanovschi,  Tao Wang,  A. Warshel,  
 C. F. Williams,  Q. Wu,  X. Xu,  W. Zhang

 Please cite Q-Chem as follows:
 Y. Shao et al., Mol. Phys. 113, 184-215 (2015)
 DOI: 10.1080/00268976.2014.952696

 Q-Chem 5.2.0 for Intel X86 EM64T Linux

 Parts of Q-Chem use Armadillo 8.300.2 (Tropical Shenanigans).
 http://arma.sourceforge.net/

 Q-Chem begins on Mon Jun  3 11:43:51 2019  

n-62-29-36
Host: 0

     Scratch files written to /work1/malop/qc_8381822.hnode2/qchem3846//
NAlpha2: 70
NElect   70
Mult     1

Checking the input file for inconsistencies... 	...done.

--------------------------------------------------------------
User input:
--------------------------------------------------------------
$comment 
NEXAFS Adenine/ 6-311(2+,+)G** (uc)
optimization: MP2/cc-pVTZ
$end

$molecule
0 1
N      1.663948   -1.127531    0.000000
N     -0.643862   -1.804088    0.000000
N     -0.636159    1.773662    0.000000
N     -2.146840    0.119893    0.000000
N      2.353671    1.084678    0.000000
C      0.668787   -2.022720    0.000000
C     -0.919981   -0.499328    0.000000
C      0.000000    0.546991    0.000000
C      1.356490    0.175959    0.000000
C     -1.907009    1.474843    0.000000
H     -3.039931   -0.341646    0.000000
H     -2.712908    2.189994    0.000000
H      0.978346   -3.060960    0.000000
H      2.144452    2.065199    0.000000
H      3.305020    0.766647    0.000000
$end

$rem
    print_general_basis = true
    jobtype = sp
    method = eom-ccsd
    cvs_ip_states    [5,0]
    basis = general
    n_frozen_core = fc 
    cc_trans_prop = true
    cc_do_dyson = true
    print_general_basis = true
    !cc_memory = 100000
    molden_format = true
$end

$basis
N    0
S    1    1.000000
   6.29348000E+03    1.96979000E-03 
S    1    1.000000
   9.49044000E+02    1.49613000E-02 
S    1    1.000000
   2.18776000E+02    7.35006000E-02 
S    1    1.000000
   6.36916000E+01    2.48937000E-01 
S    1    1.000000
   1.88282000E+01    6.02460000E-01 
S    1    1.000000
   2.72023000E+00    2.56202000E-01 
SP   3    1.000000
   3.06331000E+01    1.11906000E-01   3.83119000E-02 
   7.02614000E+00    9.21666000E-01   2.37403000E-01 
   2.11205000E+00   -2.56919000E-03   8.17592000E-01 
SP   1    1.000000
   6.84009000E-01    1.00000000E+00   1.00000000E+00 
SP   1    1.000000
   2.00878000E-01    1.00000000E+00   1.00000000E+00 
SP   1    1.000000
   6.39000000E-02    1.00000000E+00   1.00000000E+00 
SP   1    1.000000
   1.92469880E-02    1.00000000E+00   1.00000000E+00 
D    1    1.000000
   9.13000000E-01    1.00000000E+00 
****
C    0
S    1    1.000000
   4.56324000E+03    1.96665000E-03 
S    1    1.000000
   6.82024000E+02    1.52306000E-02 
S    1    1.000000
   1.54973000E+02    7.61269000E-02 
S    1    1.000000
   4.44553000E+01    2.60801000E-01 
S    1    1.000000
   1.30290000E+01    6.16462000E-01 
S    1    1.000000
   1.82773000E+00    2.21006000E-01 
SP   3    1.000000
   2.09642000E+01    1.14660000E-01   4.02487000E-02 
   4.80331000E+00    9.19999000E-01   2.37594000E-01 
   1.45933000E+00   -3.03068000E-03   8.15854000E-01 
SP   1    1.000000
   4.83456000E-01    1.00000000E+00   1.00000000E+00 
SP   1    1.000000
   1.45585000E-01    1.00000000E+00   1.00000000E+00 
SP   1    1.000000
   4.38000000E-02    1.00000000E+00   1.00000000E+00 
SP   1    1.000000
   1.31927711E-02    1.00000000E+00   1.00000000E+00 
D    1    1.000000
   6.26000000E-01    1.00000000E+00 
****
H    0
S    3    1.000000
   3.38650000E+01    2.54938000E-02 
   5.09479000E+00    1.90373000E-01 
   1.15879000E+00    8.52161000E-01 
S    1    1.000000
   3.25840000E-01    1.00000000E+00 
S    1    1.000000
   1.02741000E-01    1.00000000E+00 
S    1    1.000000
   3.60000000E-02    1.00000000E+00 
P    1    1.000000
   7.50000000E-01    1.00000000E+00 
****
$end
--------------------------------------------------------------
 ----------------------------------------------------------------
             Standard Nuclear Orientation (Angstroms)
    I     Atom           X                Y                Z
 ----------------------------------------------------------------
    1      N       1.9401893320     0.5250849361     0.0000000000
    2      N      -0.0221326925     1.9154117475     0.0000000000
    3      N      -1.1784087390    -1.4703496296    -0.0000000000
    4      N      -2.0691252255     0.5848226575     0.0000000000
    5      N       1.8729602234    -1.7911764315    -0.0000000000
    6      C       1.2902617955     1.6952571282     0.0000000000
    7      C      -0.7075769660     0.7713809316     0.0000000000
    8      C      -0.1778931772    -0.5172553918    -0.0000000000
    9      C       1.2255227416    -0.6075528111    -0.0000000000
   10      C      -2.2829904496    -0.7744676268    -0.0000000000
   11      H      -2.7635636871     1.3117236177     0.0000000000
   12      H      -3.2776614287    -1.1886460838    -0.0000000000
   13      H       1.9206502371     2.5763811176     0.0000000000
   14      H       1.3562285392    -2.6503518432    -0.0000000000
   15      H       2.8760223840    -1.7998331492    -0.0000000000
 ----------------------------------------------------------------
 Molecular Point Group                 Cs    NOp =  2
 Largest Abelian Subgroup              Cs    NOp =  2
 Nuclear Repulsion Energy =         503.72965651 hartrees
 There are       35 alpha and       35 beta electrons
 Requested basis set is non-standard
Basis set in general basis input format:
-----------------------------------------------------------------------
$basis
N    0
S    1    1.000000
   6.29348000E+03    1.96979000E-03 
S    1    1.000000
   9.49044000E+02    1.49613000E-02 
S    1    1.000000
   2.18776000E+02    7.35006000E-02 
S    1    1.000000
   6.36916000E+01    2.48937000E-01 
S    1    1.000000
   1.88282000E+01    6.02460000E-01 
S    1    1.000000
   2.72023000E+00    2.56202000E-01 
SP   3    1.000000
   3.06331000E+01    1.11906000E-01   3.83119000E-02 
   7.02614000E+00    9.21666000E-01   2.37403000E-01 
   2.11205000E+00   -2.56919000E-03   8.17592000E-01 
SP   1    1.000000
   6.84009000E-01    1.00000000E+00   1.00000000E+00 
SP   1    1.000000
   2.00878000E-01    1.00000000E+00   1.00000000E+00 
SP   1    1.000000
   6.39000000E-02    1.00000000E+00   1.00000000E+00 
SP   1    1.000000
   1.92469880E-02    1.00000000E+00   1.00000000E+00 
D    1    1.000000
   9.13000000E-01    1.00000000E+00 
****
N    0
S    1    1.000000
   6.29348000E+03    1.96979000E-03 
S    1    1.000000
   9.49044000E+02    1.49613000E-02 
S    1    1.000000
   2.18776000E+02    7.35006000E-02 
S    1    1.000000
   6.36916000E+01    2.48937000E-01 
S    1    1.000000
   1.88282000E+01    6.02460000E-01 
S    1    1.000000
   2.72023000E+00    2.56202000E-01 
SP   3    1.000000
   3.06331000E+01    1.11906000E-01   3.83119000E-02 
   7.02614000E+00    9.21666000E-01   2.37403000E-01 
   2.11205000E+00   -2.56919000E-03   8.17592000E-01 
SP   1    1.000000
   6.84009000E-01    1.00000000E+00   1.00000000E+00 
SP   1    1.000000
   2.00878000E-01    1.00000000E+00   1.00000000E+00 
SP   1    1.000000
   6.39000000E-02    1.00000000E+00   1.00000000E+00 
SP   1    1.000000
   1.92469880E-02    1.00000000E+00   1.00000000E+00 
D    1    1.000000
   9.13000000E-01    1.00000000E+00 
****
N    0
S    1    1.000000
   6.29348000E+03    1.96979000E-03 
S    1    1.000000
   9.49044000E+02    1.49613000E-02 
S    1    1.000000
   2.18776000E+02    7.35006000E-02 
S    1    1.000000
   6.36916000E+01    2.48937000E-01 
S    1    1.000000
   1.88282000E+01    6.02460000E-01 
S    1    1.000000
   2.72023000E+00    2.56202000E-01 
SP   3    1.000000
   3.06331000E+01    1.11906000E-01   3.83119000E-02 
   7.02614000E+00    9.21666000E-01   2.37403000E-01 
   2.11205000E+00   -2.56919000E-03   8.17592000E-01 
SP   1    1.000000
   6.84009000E-01    1.00000000E+00   1.00000000E+00 
SP   1    1.000000
   2.00878000E-01    1.00000000E+00   1.00000000E+00 
SP   1    1.000000
   6.39000000E-02    1.00000000E+00   1.00000000E+00 
SP   1    1.000000
   1.92469880E-02    1.00000000E+00   1.00000000E+00 
D    1    1.000000
   9.13000000E-01    1.00000000E+00 
****
N    0
S    1    1.000000
   6.29348000E+03    1.96979000E-03 
S    1    1.000000
   9.49044000E+02    1.49613000E-02 
S    1    1.000000
   2.18776000E+02    7.35006000E-02 
S    1    1.000000
   6.36916000E+01    2.48937000E-01 
S    1    1.000000
   1.88282000E+01    6.02460000E-01 
S    1    1.000000
   2.72023000E+00    2.56202000E-01 
SP   3    1.000000
   3.06331000E+01    1.11906000E-01   3.83119000E-02 
   7.02614000E+00    9.21666000E-01   2.37403000E-01 
   2.11205000E+00   -2.56919000E-03   8.17592000E-01 
SP   1    1.000000
   6.84009000E-01    1.00000000E+00   1.00000000E+00 
SP   1    1.000000
   2.00878000E-01    1.00000000E+00   1.00000000E+00 
SP   1    1.000000
   6.39000000E-02    1.00000000E+00   1.00000000E+00 
SP   1    1.000000
   1.92469880E-02    1.00000000E+00   1.00000000E+00 
D    1    1.000000
   9.13000000E-01    1.00000000E+00 
****
N    0
S    1    1.000000
   6.29348000E+03    1.96979000E-03 
S    1    1.000000
   9.49044000E+02    1.49613000E-02 
S    1    1.000000
   2.18776000E+02    7.35006000E-02 
S    1    1.000000
   6.36916000E+01    2.48937000E-01 
S    1    1.000000
   1.88282000E+01    6.02460000E-01 
S    1    1.000000
   2.72023000E+00    2.56202000E-01 
SP   3    1.000000
   3.06331000E+01    1.11906000E-01   3.83119000E-02 
   7.02614000E+00    9.21666000E-01   2.37403000E-01 
   2.11205000E+00   -2.56919000E-03   8.17592000E-01 
SP   1    1.000000
   6.84009000E-01    1.00000000E+00   1.00000000E+00 
SP   1    1.000000
   2.00878000E-01    1.00000000E+00   1.00000000E+00 
SP   1    1.000000
   6.39000000E-02    1.00000000E+00   1.00000000E+00 
SP   1    1.000000
   1.92469880E-02    1.00000000E+00   1.00000000E+00 
D    1    1.000000
   9.13000000E-01    1.00000000E+00 
****
C    0
S    1    1.000000
   4.56324000E+03    1.96665000E-03 
S    1    1.000000
   6.82024000E+02    1.52306000E-02 
S    1    1.000000
   1.54973000E+02    7.61269000E-02 
S    1    1.000000
   4.44553000E+01    2.60801000E-01 
S    1    1.000000
   1.30290000E+01    6.16462000E-01 
S    1    1.000000
   1.82773000E+00    2.21006000E-01 
SP   3    1.000000
   2.09642000E+01    1.14660000E-01   4.02487000E-02 
   4.80331000E+00    9.19999000E-01   2.37594000E-01 
   1.45933000E+00   -3.03068000E-03   8.15854000E-01 
SP   1    1.000000
   4.83456000E-01    1.00000000E+00   1.00000000E+00 
SP   1    1.000000
   1.45585000E-01    1.00000000E+00   1.00000000E+00 
SP   1    1.000000
   4.38000000E-02    1.00000000E+00   1.00000000E+00 
SP   1    1.000000
   1.31927711E-02    1.00000000E+00   1.00000000E+00 
D    1    1.000000
   6.26000000E-01    1.00000000E+00 
****
C    0
S    1    1.000000
   4.56324000E+03    1.96665000E-03 
S    1    1.000000
   6.82024000E+02    1.52306000E-02 
S    1    1.000000
   1.54973000E+02    7.61269000E-02 
S    1    1.000000
   4.44553000E+01    2.60801000E-01 
S    1    1.000000
   1.30290000E+01    6.16462000E-01 
S    1    1.000000
   1.82773000E+00    2.21006000E-01 
SP   3    1.000000
   2.09642000E+01    1.14660000E-01   4.02487000E-02 
   4.80331000E+00    9.19999000E-01   2.37594000E-01 
   1.45933000E+00   -3.03068000E-03   8.15854000E-01 
SP   1    1.000000
   4.83456000E-01    1.00000000E+00   1.00000000E+00 
SP   1    1.000000
   1.45585000E-01    1.00000000E+00   1.00000000E+00 
SP   1    1.000000
   4.38000000E-02    1.00000000E+00   1.00000000E+00 
SP   1    1.000000
   1.31927711E-02    1.00000000E+00   1.00000000E+00 
D    1    1.000000
   6.26000000E-01    1.00000000E+00 
****
C    0
S    1    1.000000
   4.56324000E+03    1.96665000E-03 
S    1    1.000000
   6.82024000E+02    1.52306000E-02 
S    1    1.000000
   1.54973000E+02    7.61269000E-02 
S    1    1.000000
   4.44553000E+01    2.60801000E-01 
S    1    1.000000
   1.30290000E+01    6.16462000E-01 
S    1    1.000000
   1.82773000E+00    2.21006000E-01 
SP   3    1.000000
   2.09642000E+01    1.14660000E-01   4.02487000E-02 
   4.80331000E+00    9.19999000E-01   2.37594000E-01 
   1.45933000E+00   -3.03068000E-03   8.15854000E-01 
SP   1    1.000000
   4.83456000E-01    1.00000000E+00   1.00000000E+00 
SP   1    1.000000
   1.45585000E-01    1.00000000E+00   1.00000000E+00 
SP   1    1.000000
   4.38000000E-02    1.00000000E+00   1.00000000E+00 
SP   1    1.000000
   1.31927711E-02    1.00000000E+00   1.00000000E+00 
D    1    1.000000
   6.26000000E-01    1.00000000E+00 
****
C    0
S    1    1.000000
   4.56324000E+03    1.96665000E-03 
S    1    1.000000
   6.82024000E+02    1.52306000E-02 
S    1    1.000000
   1.54973000E+02    7.61269000E-02 
S    1    1.000000
   4.44553000E+01    2.60801000E-01 
S    1    1.000000
   1.30290000E+01    6.16462000E-01 
S    1    1.000000
   1.82773000E+00    2.21006000E-01 
SP   3    1.000000
   2.09642000E+01    1.14660000E-01   4.02487000E-02 
   4.80331000E+00    9.19999000E-01   2.37594000E-01 
   1.45933000E+00   -3.03068000E-03   8.15854000E-01 
SP   1    1.000000
   4.83456000E-01    1.00000000E+00   1.00000000E+00 
SP   1    1.000000
   1.45585000E-01    1.00000000E+00   1.00000000E+00 
SP   1    1.000000
   4.38000000E-02    1.00000000E+00   1.00000000E+00 
SP   1    1.000000
   1.31927711E-02    1.00000000E+00   1.00000000E+00 
D    1    1.000000
   6.26000000E-01    1.00000000E+00 
****
C    0
S    1    1.000000
   4.56324000E+03    1.96665000E-03 
S    1    1.000000
   6.82024000E+02    1.52306000E-02 
S    1    1.000000
   1.54973000E+02    7.61269000E-02 
S    1    1.000000
   4.44553000E+01    2.60801000E-01 
S    1    1.000000
   1.30290000E+01    6.16462000E-01 
S    1    1.000000
   1.82773000E+00    2.21006000E-01 
SP   3    1.000000
   2.09642000E+01    1.14660000E-01   4.02487000E-02 
   4.80331000E+00    9.19999000E-01   2.37594000E-01 
   1.45933000E+00   -3.03068000E-03   8.15854000E-01 
SP   1    1.000000
   4.83456000E-01    1.00000000E+00   1.00000000E+00 
SP   1    1.000000
   1.45585000E-01    1.00000000E+00   1.00000000E+00 
SP   1    1.000000
   4.38000000E-02    1.00000000E+00   1.00000000E+00 
SP   1    1.000000
   1.31927711E-02    1.00000000E+00   1.00000000E+00 
D    1    1.000000
   6.26000000E-01    1.00000000E+00 
****
H    0
S    3    1.000000
   3.38650000E+01    2.54938000E-02 
   5.09479000E+00    1.90373000E-01 
   1.15879000E+00    8.52161000E-01 
S    1    1.000000
   3.25840000E-01    1.00000000E+00 
S    1    1.000000
   1.02741000E-01    1.00000000E+00 
S    1    1.000000
   3.60000000E-02    1.00000000E+00 
P    1    1.000000
   7.50000000E-01    1.00000000E+00 
****
H    0
S    3    1.000000
   3.38650000E+01    2.54938000E-02 
   5.09479000E+00    1.90373000E-01 
   1.15879000E+00    8.52161000E-01 
S    1    1.000000
   3.25840000E-01    1.00000000E+00 
S    1    1.000000
   1.02741000E-01    1.00000000E+00 
S    1    1.000000
   3.60000000E-02    1.00000000E+00 
P    1    1.000000
   7.50000000E-01    1.00000000E+00 
****
H    0
S    3    1.000000
   3.38650000E+01    2.54938000E-02 
   5.09479000E+00    1.90373000E-01 
   1.15879000E+00    8.52161000E-01 
S    1    1.000000
   3.25840000E-01    1.00000000E+00 
S    1    1.000000
   1.02741000E-01    1.00000000E+00 
S    1    1.000000
   3.60000000E-02    1.00000000E+00 
P    1    1.000000
   7.50000000E-01    1.00000000E+00 
****
H    0
S    3    1.000000
   3.38650000E+01    2.54938000E-02 
   5.09479000E+00    1.90373000E-01 
   1.15879000E+00    8.52161000E-01 
S    1    1.000000
   3.25840000E-01    1.00000000E+00 
S    1    1.000000
   1.02741000E-01    1.00000000E+00 
S    1    1.000000
   3.60000000E-02    1.00000000E+00 
P    1    1.000000
   7.50000000E-01    1.00000000E+00 
****
H    0
S    3    1.000000
   3.38650000E+01    2.54938000E-02 
   5.09479000E+00    1.90373000E-01 
   1.15879000E+00    8.52161000E-01 
S    1    1.000000
   3.25840000E-01    1.00000000E+00 
S    1    1.000000
   1.02741000E-01    1.00000000E+00 
S    1    1.000000
   3.60000000E-02    1.00000000E+00 
P    1    1.000000
   7.50000000E-01    1.00000000E+00 
****
$end
-----------------------------------------------------------------------
 There are 145 shells and 345 basis functions
 Total memory of 2000 MB is distributed as follows: 
   MEM_STATIC is set to 192 MB
   QALLOC/CCMAN JOB total memory use is  1808 MB
 Warning: actual memory use might exceed 2000 MB

 Total QAlloc Memory Limit   2000 MB
 Mega-Array Size       188 MB
 MEM_STATIC part       192 MB

                       Distance Matrix (Angstroms)
             N (  1)   N (  2)   N (  3)   N (  4)   N (  5)   C (  6)
   N (  2)  2.404936
   N (  3)  3.702352  3.577758
   N (  4)  4.009760  2.441443  2.239890
   N (  5)  2.317237  4.162952  3.068189  4.602761
   C (  6)  1.338547  1.330732  4.014399  3.538156  3.534792
   C (  7)  2.659197  1.333657  2.290641  1.374270  3.636739  2.201115
   C (  8)  2.360667  2.437649  1.381818  2.188912  2.414306  2.655314
   C (  9)  1.339260  2.814604  2.554076  3.503779  1.349126  2.303720
   C ( 10)  4.418607  3.513820  1.305509  1.376012  4.278507  4.343693
   H ( 11)  4.769077  2.807113  3.201976  1.005301  5.579009  4.071928
   H ( 12)  5.492071  4.498182  2.118070  2.146101  5.185745  5.402113
   H ( 13)  2.051389  2.052142  5.097077  4.459217  4.367818  1.083406
   H ( 14)  3.228685  4.769285  2.795853  4.711624  1.002594  4.346110
   H ( 15)  2.506198  4.711937  4.067797  5.490088  1.003100  3.838006
             C (  7)   C (  8)   C (  9)   C ( 10)   H ( 11)   H ( 12)
   C (  8)  1.393251
   C (  9)  2.374517  1.406318
   C ( 10)  2.207165  2.120753  3.512481
   H ( 11)  2.125806  3.167153  4.426786  2.140828
   H ( 12)  3.232188  3.171644  4.540522  1.077457  2.552674
   H ( 13)  3.188354  3.738244  3.258932  5.375759  4.851929  6.418557
   H ( 14)  3.995941  2.627476  2.046976  4.094247  5.715832  4.858963
   H ( 15)  4.410592  3.312311  2.036095  5.259923  6.441018  6.183961
             H ( 13)   H ( 14)
   H ( 14)  5.257120
   H ( 15)  4.479284  1.741596

 A cutoff of  1.0D-14 yielded   8215 shell pairs
 There are     54842 function pairs (     58173 Cartesian)
 Smallest overlap matrix eigenvalue = 2.12E-08
 Linear dependence detected in AO basis
 Tighter screening thresholds may be required for diffuse basis sets
 Use S2THRESH > 14 and THRESH = 14 in case of SCF convergence issues
 Number of orthogonalized atomic orbitals = 342
 Maximum deviation from orthogonality = 1.299E-10

 Scale SEOQF with 1.000000e-01/1.000000e-01/1.000000e-01

 Standard Electronic Orientation quadrupole field applied
 Nucleus-field energy     =     0.0000000146 hartrees
 Guess MOs from core Hamiltonian diagonalization

 -----------------------------------------------------------------------
  General SCF calculation program by
  Eric Jon Sundstrom, Paul Horn, Yuezhi Mao, Dmitri Zuev, Alec White,
  David Stuck, Shaama M.S., Shane Yost, Joonho Lee, David Small,
  Daniel Levine, Susi Lehtola, Hugh Burton, Evgeny Epifanovsky
 -----------------------------------------------------------------------
 Hartree-Fock
 using 4 threads for integral computing
 -------------------------------------------------------
 OpenMP Integral computing Module                
 Release: version 2.0, May 2017, Q-Chem Inc. Pleasanton 
 -------------------------------------------------------
 A restricted SCF calculation will be
 performed using DIIS
 SCF converges when DIIS error is below 1.0e-08
 ---------------------------------------
  Cycle       Energy         DIIS error
 ---------------------------------------
    1    -351.4781337532      9.41e-02  
    2    -304.1832024455      5.96e-02  
    3    -391.7456044612      5.50e-02  
    4    -425.5316944291      4.42e-02  
    5    -447.6915797576      2.73e-02  
    6    -454.9586392834      2.14e-02  
    7    -463.6356006393      8.00e-03  
    8    -464.5618792160      2.36e-03  
    9    -464.6305196646      5.13e-04  
   10    -464.6357638110      2.26e-04  
   11    -464.6369748143      6.85e-05  
   12    -464.6371845228      2.54e-05  
   13    -464.6372186770      1.51e-05  
   14    -464.6372287673      6.30e-06  
   15    -464.6372315189      2.50e-06  
   16    -464.6372318799      9.75e-07  
   17    -464.6372319191      3.43e-07  
   18    -464.6372319224      1.47e-07  
   19    -464.6372319231      5.26e-08  
   20    -464.6372319232      1.64e-08  
   21    -464.6372319232      6.99e-09  Convergence criterion met
 ---------------------------------------
 SCF time:   CPU 400.83s  wall 104.00s 
 SCF   energy in the final basis set =     -464.6372319232
 Total energy in the final basis set =     -464.6372319232


 ------------------------------------------------------------------------------

   CCMAN2: suite of methods based on coupled cluster
           and equation of motion theories.

   Components:
   * libvmm-1.3-trunk
     by Evgeny Epifanovsky, Ilya Kaliman.
   * libtensor-2.5-trunk
     by Evgeny Epifanovsky, Michael Wormit, Dmitry Zuev, Sam Manzer, 
        Ilya Kaliman.
   * libcc-2.5-trunk
     by Evgeny Epifanovsky, Arik Landau, Tomasz Kus, Kirill Khistyaev, 
        Dmitry Zuev, Prashant Manohar, Xintian Feng, Anna Krylov, 
        Matthew Goldey, Alec White, Thomas Jagau, Kaushik Nanda, 
        Anastasia Gunina, Alexander Kunitsa, Joonho Lee.

   CCMAN original authors:
   Anna I. Krylov, C. David Sherrill, Steven R. Gwaltney,
   Edward F. C. Byrd (2000)
   Sergey V. Levchenko, Lyudmila V. Slipchenko, Tao Wang,
   Ana-Maria C. Cristian (2003)
   Piotr A. Pieniazek, C. Melania Oana, Evgeny Epifanovsky (2007)
   Prashant Manohar (2009)

 ------------------------------------------------------------------------------


 Allocating and initializing 1808MB of RAM...
 Calculation will run on 4 cores.


 Alpha MOs, Restricted
 -- Occupied --                  
-15.634 -15.587 -15.572 -15.559 -15.552 -11.343 -11.328 -11.322
  1 A'    2 A'    3 A'    4 A'    5 A'    6 A'    7 A'    8 A'                 
-11.313 -11.257  -1.374  -1.307  -1.253  -1.192  -1.157  -1.040
  9 A'   10 A'   11 A'   12 A'   13 A'   14 A'   15 A'   16 A'                 
 -0.901  -0.882  -0.849  -0.785  -0.745  -0.703  -0.683  -0.641
 17 A'   18 A'   19 A'   20 A'   21 A'   22 A'   23 A'    1 A"                 
 -0.639  -0.619  -0.597  -0.561  -0.500  -0.497  -0.452  -0.426
 24 A'   25 A'   26 A'    2 A"    3 A"   27 A'   28 A'    4 A"                 
 -0.411  -0.375  -0.312
 29 A'    5 A"    6 A"                                                         
 -- Virtual --                   
  0.010   0.016   0.021   0.024   0.028   0.029   0.033   0.036
 30 A'   31 A'   32 A'    7 A"   33 A'   34 A'    8 A"    9 A"                 
  0.037   0.041   0.042   0.049   0.052   0.052   0.055   0.057
 35 A'   36 A'   37 A'   38 A'   10 A"   39 A'   40 A'   11 A"                 
  0.059   0.061   0.065   0.071   0.080   0.081   0.082   0.082
 41 A'   42 A'   43 A'   44 A'   45 A'   12 A"   13 A"   46 A'                 
  0.091   0.091   0.092   0.099   0.100   0.102   0.103   0.104
 14 A"   47 A'   48 A'   49 A'   15 A"   50 A'   16 A"   51 A'                 
  0.107   0.112   0.116   0.118   0.123   0.131   0.138   0.141
 52 A'   53 A'   17 A"   54 A'   55 A'   56 A'   57 A'   18 A"                 
  0.149   0.150   0.159   0.164   0.180   0.199   0.203   0.210
 58 A'   59 A'   60 A'   19 A"   61 A'   62 A'   63 A'   20 A"                 
  0.212   0.215   0.222   0.226   0.226   0.231   0.233   0.234
 64 A'   65 A'   21 A"   66 A'   22 A"   67 A'   23 A"   68 A'                 
  0.238   0.242   0.248   0.262   0.268   0.284   0.287   0.293
 69 A'   24 A"   70 A'   71 A'   72 A'   73 A'   74 A'   25 A"                 
  0.303   0.309   0.323   0.333   0.335   0.339   0.339   0.346
 26 A"   75 A'   76 A'   77 A'   27 A"   78 A'   28 A"   79 A'                 
  0.351   0.363   0.368   0.371   0.384   0.390   0.401   0.414
 80 A'   81 A'   29 A"   82 A'   83 A'   84 A'   85 A'   86 A'                 
  0.416   0.420   0.429   0.439   0.456   0.460   0.472   0.474
 30 A"   87 A'   88 A'   89 A'   90 A'   91 A'   92 A'   93 A'                 
  0.477   0.494   0.504   0.517   0.536   0.550   0.575   0.587
 94 A'   95 A'   96 A'   97 A'   98 A'   99 A'  100 A'  101 A'                 
  0.614   0.646   0.664   0.692   0.724   0.769   0.773   0.775
102 A'  103 A'  104 A'  105 A'  106 A'  107 A'  108 A'   31 A"                 
  0.787   0.805   0.813   0.821   0.834   0.870   0.888   0.914
 32 A"  109 A'   33 A"   34 A"  110 A'   35 A"  111 A'  112 A'                 
  0.935   0.959   0.984   0.999   1.029   1.037   1.051   1.063
113 A'  114 A'  115 A'  116 A'  117 A'  118 A'  119 A'   36 A"                 
  1.078   1.085   1.096   1.113   1.118   1.127   1.136   1.140
 37 A"  120 A'  121 A'  122 A'  123 A'  124 A'   38 A"   39 A"                 
  1.142   1.152   1.172   1.184   1.207   1.225   1.232   1.240
125 A'  126 A'  127 A'  128 A'   40 A"  129 A'  130 A'   41 A"                 
  1.246   1.269   1.298   1.304   1.311   1.348   1.368   1.399
131 A'  132 A'  133 A'   42 A"  134 A'  135 A'   43 A"  136 A'                 
  1.407   1.414   1.446   1.450   1.485   1.518   1.538   1.577
 44 A"   45 A"  137 A'   46 A"   47 A"  138 A'  139 A'   48 A"                 
  1.637   1.648   1.655   1.744   1.765   1.781   1.832   1.878
140 A'   49 A"  141 A'  142 A'  143 A'  144 A'  145 A'  146 A'                 
  1.888   1.939   1.949   1.973   2.002   2.017   2.019   2.053
 50 A"  147 A'   51 A"  148 A'  149 A'   52 A"  150 A'  151 A'                 
  2.082   2.084   2.119   2.137   2.150   2.195   2.225   2.231
152 A'   53 A"  153 A'   54 A"  154 A'  155 A'   55 A"  156 A'                 
  2.299   2.332   2.453   2.475   2.487   2.489   2.515   2.564
157 A'  158 A'  159 A'  160 A'  161 A'   56 A"  162 A'   57 A"                 
  2.598   2.608   2.619   2.656   2.726   2.743   2.801   2.863
 58 A"  163 A'  164 A'   59 A"  165 A'   60 A"   61 A"   62 A"                 
  2.883   2.897   2.905   2.940   2.977   2.985   2.998   3.014
166 A'  167 A'   63 A"  168 A'  169 A'  170 A'   64 A"  171 A'                 
  3.073   3.115   3.119   3.146   3.179   3.205   3.212   3.225
172 A'   65 A"  173 A'  174 A'  175 A'  176 A'  177 A'   66 A"                 
  3.244   3.271   3.279   3.283   3.293   3.315   3.370   3.388
178 A'   67 A"   68 A"  179 A'   69 A"  180 A'  181 A'  182 A'                 
  3.396   3.466   3.509   3.692   3.734   3.808   3.896   3.918
 70 A"  183 A'  184 A'  185 A'  186 A'  187 A'  188 A'  189 A'                 
  3.965   4.022   4.078   4.107   4.144   4.187   4.286   4.340
190 A'  191 A'  192 A'  193 A'  194 A'  195 A'  196 A'   71 A"                 
  4.362   4.423   4.439   4.461   4.535   4.803   4.906   5.027
 72 A"   73 A"   74 A"   75 A"  197 A'  198 A'  199 A'  200 A'                 
  5.038   5.248   5.296   5.433   5.520   5.579   5.687   5.763
201 A'  202 A'  203 A'  204 A'  205 A'  206 A'  207 A'  208 A'                 
  5.790   5.847   5.876   6.056   7.638   7.721   7.823   7.900
209 A'  210 A'  211 A'  212 A'  213 A'  214 A'  215 A'  216 A'                 
  7.932  20.698  20.758  20.812  20.901  20.985  30.175  30.217
217 A'  218 A'  219 A'  220 A'  221 A'  222 A'  223 A'  224 A'                 
 30.277  30.385  30.399  80.257  80.301  80.346  80.413  80.495
225 A'  226 A'  227 A'  228 A'  229 A'  230 A'  231 A'  232 A'                 
116.307 116.343 116.393 116.479 116.491 322.085 322.118 322.157
233 A'  234 A'  235 A'  236 A'  237 A'  238 A'  239 A'  240 A'                 
322.211 322.289 460.415 460.450 460.495 460.564 460.5751431.642
241 A'  242 A'  243 A'  244 A'  245 A'  246 A'  247 A'  248 A'                 
*******1431.7021431.7471431.8192012.8952012.9302012.9732013.028
249 A'  250 A'  251 A'  252 A'  253 A'  254 A'  255 A'  256 A'                 
*******8749.8668749.8828749.9148749.9528750.017****************
257 A'  258 A'  259 A'  260 A'  261 A'  262 A'  263 A'  264 A'                 
***********************
265 A'  266 A'  267 A'                                                         

 Beta MOs, Restricted
 -- Occupied --                  
-15.634 -15.587 -15.572 -15.559 -15.552 -11.343 -11.328 -11.322
  1 A'    2 A'    3 A'    4 A'    5 A'    6 A'    7 A'    8 A'                 
-11.313 -11.257  -1.374  -1.307  -1.253  -1.192  -1.157  -1.040
  9 A'   10 A'   11 A'   12 A'   13 A'   14 A'   15 A'   16 A'                 
 -0.901  -0.882  -0.849  -0.785  -0.745  -0.703  -0.683  -0.641
 17 A'   18 A'   19 A'   20 A'   21 A'   22 A'   23 A'    1 A"                 
 -0.639  -0.619  -0.597  -0.561  -0.500  -0.497  -0.452  -0.426
 24 A'   25 A'   26 A'    2 A"    3 A"   27 A'   28 A'    4 A"                 
 -0.411  -0.375  -0.312
 29 A'    5 A"    6 A"                                                         
 -- Virtual --                   
  0.010   0.016   0.021   0.024   0.028   0.029   0.033   0.036
 30 A'   31 A'   32 A'    7 A"   33 A'   34 A'    8 A"    9 A"                 
  0.037   0.041   0.042   0.049   0.052   0.052   0.055   0.057
 35 A'   36 A'   37 A'   38 A'   10 A"   39 A'   40 A'   11 A"                 
  0.059   0.061   0.065   0.071   0.080   0.081   0.082   0.082
 41 A'   42 A'   43 A'   44 A'   45 A'   12 A"   13 A"   46 A'                 
  0.091   0.091   0.092   0.099   0.100   0.102   0.103   0.104
 14 A"   47 A'   48 A'   49 A'   15 A"   50 A'   16 A"   51 A'                 
  0.107   0.112   0.116   0.118   0.123   0.131   0.138   0.141
 52 A'   53 A'   17 A"   54 A'   55 A'   56 A'   57 A'   18 A"                 
  0.149   0.150   0.159   0.164   0.180   0.199   0.203   0.210
 58 A'   59 A'   60 A'   19 A"   61 A'   62 A'   63 A'   20 A"                 
  0.212   0.215   0.222   0.226   0.226   0.231   0.233   0.234
 64 A'   65 A'   21 A"   66 A'   22 A"   67 A'   23 A"   68 A'                 
  0.238   0.242   0.248   0.262   0.268   0.284   0.287   0.293
 69 A'   24 A"   70 A'   71 A'   72 A'   73 A'   74 A'   25 A"                 
  0.303   0.309   0.323   0.333   0.335   0.339   0.339   0.346
 26 A"   75 A'   76 A'   77 A'   27 A"   78 A'   28 A"   79 A'                 
  0.351   0.363   0.368   0.371   0.384   0.390   0.401   0.414
 80 A'   81 A'   29 A"   82 A'   83 A'   84 A'   85 A'   86 A'                 
  0.416   0.420   0.429   0.439   0.456   0.460   0.472   0.474
 30 A"   87 A'   88 A'   89 A'   90 A'   91 A'   92 A'   93 A'                 
  0.477   0.494   0.504   0.517   0.536   0.550   0.575   0.587
 94 A'   95 A'   96 A'   97 A'   98 A'   99 A'  100 A'  101 A'                 
  0.614   0.646   0.664   0.692   0.724   0.769   0.773   0.775
102 A'  103 A'  104 A'  105 A'  106 A'  107 A'  108 A'   31 A"                 
  0.787   0.805   0.813   0.821   0.834   0.870   0.888   0.914
 32 A"  109 A'   33 A"   34 A"  110 A'   35 A"  111 A'  112 A'                 
  0.935   0.959   0.984   0.999   1.029   1.037   1.051   1.063
113 A'  114 A'  115 A'  116 A'  117 A'  118 A'  119 A'   36 A"                 
  1.078   1.085   1.096   1.113   1.118   1.127   1.136   1.140
 37 A"  120 A'  121 A'  122 A'  123 A'  124 A'   38 A"   39 A"                 
  1.142   1.152   1.172   1.184   1.207   1.225   1.232   1.240
125 A'  126 A'  127 A'  128 A'   40 A"  129 A'  130 A'   41 A"                 
  1.246   1.269   1.298   1.304   1.311   1.348   1.368   1.399
131 A'  132 A'  133 A'   42 A"  134 A'  135 A'   43 A"  136 A'                 
  1.407   1.414   1.446   1.450   1.485   1.518   1.538   1.577
 44 A"   45 A"  137 A'   46 A"   47 A"  138 A'  139 A'   48 A"                 
  1.637   1.648   1.655   1.744   1.765   1.781   1.832   1.878
140 A'   49 A"  141 A'  142 A'  143 A'  144 A'  145 A'  146 A'                 
  1.888   1.939   1.949   1.973   2.002   2.017   2.019   2.053
 50 A"  147 A'   51 A"  148 A'  149 A'   52 A"  150 A'  151 A'                 
  2.082   2.084   2.119   2.137   2.150   2.195   2.225   2.231
152 A'   53 A"  153 A'   54 A"  154 A'  155 A'   55 A"  156 A'                 
  2.299   2.332   2.453   2.475   2.487   2.489   2.515   2.564
157 A'  158 A'  159 A'  160 A'  161 A'   56 A"  162 A'   57 A"                 
  2.598   2.608   2.619   2.656   2.726   2.743   2.801   2.863
 58 A"  163 A'  164 A'   59 A"  165 A'   60 A"   61 A"   62 A"                 
  2.883   2.897   2.905   2.940   2.977   2.985   2.998   3.014
166 A'  167 A'   63 A"  168 A'  169 A'  170 A'   64 A"  171 A'                 
  3.073   3.115   3.119   3.146   3.179   3.205   3.212   3.225
172 A'   65 A"  173 A'  174 A'  175 A'  176 A'  177 A'   66 A"                 
  3.244   3.271   3.279   3.283   3.293   3.315   3.370   3.388
178 A'   67 A"   68 A"  179 A'   69 A"  180 A'  181 A'  182 A'                 
  3.396   3.466   3.509   3.692   3.734   3.808   3.896   3.918
 70 A"  183 A'  184 A'  185 A'  186 A'  187 A'  188 A'  189 A'                 
  3.965   4.022   4.078   4.107   4.144   4.187   4.286   4.340
190 A'  191 A'  192 A'  193 A'  194 A'  195 A'  196 A'   71 A"                 
  4.362   4.423   4.439   4.461   4.535   4.803   4.906   5.027
 72 A"   73 A"   74 A"   75 A"  197 A'  198 A'  199 A'  200 A'                 
  5.038   5.248   5.296   5.433   5.520   5.579   5.687   5.763
201 A'  202 A'  203 A'  204 A'  205 A'  206 A'  207 A'  208 A'                 
  5.790   5.847   5.876   6.056   7.638   7.721   7.823   7.900
209 A'  210 A'  211 A'  212 A'  213 A'  214 A'  215 A'  216 A'                 
  7.932  20.698  20.758  20.812  20.901  20.985  30.175  30.217
217 A'  218 A'  219 A'  220 A'  221 A'  222 A'  223 A'  224 A'                 
 30.277  30.385  30.399  80.257  80.301  80.346  80.413  80.495
225 A'  226 A'  227 A'  228 A'  229 A'  230 A'  231 A'  232 A'                 
116.307 116.343 116.393 116.479 116.491 322.085 322.118 322.157
233 A'  234 A'  235 A'  236 A'  237 A'  238 A'  239 A'  240 A'                 
322.211 322.289 460.415 460.450 460.495 460.564 460.5751431.642
241 A'  242 A'  243 A'  244 A'  245 A'  246 A'  247 A'  248 A'                 
*******1431.7021431.7471431.8192012.8952012.9302012.9732013.028
249 A'  250 A'  251 A'  252 A'  253 A'  254 A'  255 A'  256 A'                 
*******8749.8668749.8828749.9148749.9528750.017****************
257 A'  258 A'  259 A'  260 A'  261 A'  262 A'  263 A'  264 A'                 
***********************
265 A'  266 A'  267 A'                                                         

 Occupation and symmetry of molecular orbitals

 Point group: Cs (2 irreducible representations).

                           A'   A"    All 
 ------------------------------------------
 All molecular orbitals:
  - Alpha                  267  75    342 
  - Beta                   267  75    342 
 ------------------------------------------
 Alpha orbitals:
  - Frozen occupied        10   0     10  
  - Active occupied        19   6     25  
  - Active virtual         238  69    307 
  - Frozen virtual         0    0     0   
 ------------------------------------------
 Beta orbitals:
  - Frozen occupied        10   0     10  
  - Active occupied        19   6     25  
  - Active virtual         238  69    307 
  - Frozen virtual         0    0     0   
 ------------------------------------------

 Import integrals:   CPU 0.00 s  wall 0.00 s

 Import integrals:   CPU 1536.34 s  wall 570.38 s

 MP2 amplitudes:   CPU 7.01 s  wall 8.46 s

Running a double precision version
           CCSD T amplitudes will be solved using DIIS.

           Start     Size      MaxIter   EConv     TConv     
           3         7         100       1.00e-06  1.00e-04  
 ------------------------------------------------------------------------------
           Energy (a.u.)   Ediff      Tdiff       Comment
 ------------------------------------------------------------------------------
          -466.18787388                           
     1    -466.14501376   4.29e-02   1.16e+00     Step took 14.55.
     2    -466.19872107   5.37e-02   1.65e-01     
     3    -466.19482758   3.89e-03   6.38e-02     
     4    -466.19972423   4.90e-03   2.22e-02     Switched to DIIS steps.
     5    -466.20148120   1.76e-03   1.34e-02     
     6    -466.20162616   1.45e-04   3.37e-03     
     7    -466.20163052   4.36e-06   1.61e-03     
     8    -466.20163256   2.03e-06   5.04e-04     
     9    -466.20163729   4.73e-06   2.71e-04     
    10    -466.20163788   5.89e-07   9.37e-05     
 ------------------------------------------------------------------------------
          -466.20163788                           CCSD T converged.

End of double precision
 SCF energy                 = -464.63723192
 MP2 energy                 = -466.18787388
 CCSD correlation energy    =   -1.56440596
 CCSD total energy          = -466.20163788

 CCSD  T1^2 = 0.0258  T2^2 = 0.5271  Leading amplitudes:

 Amplitude    Orbitals with energies
  0.0293       3 (A") A                  ->    17 (A") A                  
              -0.5003                          0.1164                     
  0.0293       3 (A") B                  ->    17 (A") B                  
              -0.5003                          0.1164                     
  0.0247       5 (A") A                  ->    18 (A") A                  
              -0.3751                          0.1414                     
  0.0247       5 (A") B                  ->    18 (A") B                  
              -0.3751                          0.1414                     

 Amplitude    Orbitals with energies
 -0.0409       5 (A") A      5 (A") B    ->    18 (A") A     18 (A") B    
              -0.3751       -0.3751            0.1414        0.1414       
  0.0409       5 (A") A      5 (A") B    ->    18 (A") B     18 (A") A    
              -0.3751       -0.3751            0.1414        0.1414       
  0.0409       5 (A") B      5 (A") A    ->    18 (A") A     18 (A") B    
              -0.3751       -0.3751            0.1414        0.1414       
 -0.0409       5 (A") B      5 (A") A    ->    18 (A") B     18 (A") A    
              -0.3751       -0.3751            0.1414        0.1414       

 Computing CCSD intermediates for later calculations in double precision
 Finished.

Running a double precision version
           CCSD Lambda amplitudes will be solved using DIIS.
           Start     Size      MaxIter   EConv     LConv     
           3         7         100       1.00e-06  1.00e-04  
 ------------------------------------------------------------------------------
            Enorm      Ldiff       Comment
 ------------------------------------------------------------------------------
     1     6.89e-02   5.27e-02     
     2     1.48e-02   3.47e-03     
     3     6.02e-03   2.25e-03     
     4     3.04e-03   8.69e-04     Switched to DIIS steps.
     5     9.60e-04   5.62e-04     
     6     4.34e-04   1.61e-04     
     7     1.34e-04   3.83e-05     
     8     6.25e-05   2.92e-06     
     9     2.17e-05   1.31e-08     
    10     9.94e-06   1.15e-07     
    11     4.45e-06   6.39e-08     
    12     1.64e-06   6.69e-08     
    13     7.23e-07   4.68e-08     
 ------------------------------------------------------------------------------
                                   CCSD Lambda converged.

 CCSD calculation:   CPU 34316.22 s  wall 37616.06 s

        Solving for CVS-EOMIP-CCSD A' transitions.

Running a double precision version
      CVS-EOMIP-CCSD/MP2 right amplitudes will be solved using Davidson.
        Amplitudes will be solved using standard  algorithm.
     Hard-coded thresholds: 
     LinDepThresh=1.00e-15  NormThresh=1.00e-06  ReorthogonThresh=1.00e-02

      Roots     MaxVec    MaxIter   Precond   Conv      Shift    
      5         120       60        1         1.00e-05  0.00e+00  
 ------------------------------------------------------------------------------
      Iter ConvRoots NVecs ResNorm Current eigenvalues (eV)
 ------------------------------------------------------------------------------
      0    0      5     9.79e-01   306.0942   307.2347   307.5731   307.6967   308.1049   
      1    0      10    2.25e+00   303.1651   304.4228   304.6763   304.8784   305.2460   
      2    0      15    2.97e-02   291.9316   293.3856   293.5390   293.8375   294.1941   
      3    0      20    2.37e-03   291.5226   292.9708   293.1454   293.4141   293.7959   
      4    0      25    2.79e-04   291.5029   292.9418   293.1192   293.3870   293.7674   
      5    1      30    1.62e-05   291.4989*  292.9348   293.1131   293.3786   293.7605   
      6    5      34    5.52e-06   291.4989*  292.9346*  293.1129*  293.3784*  293.7601*  

     Davidson procedure converged

 EOMIP transition 1/A'
 Total energy = -455.48924861 a.u.  Excitation energy = 291.4989 eV.
 R1^2 = 0.8934  R2_CCVV^2 = 0.0018  R2_COVV^2 = 0.1057  Res^2 = 8.90e-06
 Conv-d = yes

 Amplitude    Transitions between orbitals
 -0.9452       10 (A') A                 ->    infty        
  0.0028       8 (A') A                  ->    infty        
  0.0015       6 (A') A                  ->    infty        
  0.0002       7 (A') A                  ->    infty        

              Summary of significant orbitals:

               Number  Type             Irrep      Energy
               6       Occ  Alpha       6 (A')    -11.3433
               7       Occ  Alpha       7 (A')    -11.3277
               8       Occ  Alpha       8 (A')    -11.3221
               10      Occ  Alpha      10 (A')    -11.2569


 EOMIP transition 2/A'
 Total energy = -455.43648863 a.u.  Excitation energy = 292.9346 eV.
 R1^2 = 0.8845  R2_CCVV^2 = 0.0018  R2_COVV^2 = 0.1146  Res^2 = 5.30e-06
 Conv-d = yes

 Amplitude    Transitions between orbitals
  0.9405       9 (A') A                  ->    infty        
 -0.0017       8 (A') A                  ->    infty        
 -0.0003       6 (A') A                  ->    infty        
  0.0002       10 (A') A                 ->    infty        

              Summary of significant orbitals:

               Number  Type             Irrep      Energy
               6       Occ  Alpha       6 (A')    -11.3433
               8       Occ  Alpha       8 (A')    -11.3221
               9       Occ  Alpha       9 (A')    -11.3135
               10      Occ  Alpha      10 (A')    -11.2569


 EOMIP transition 3/A'
 Total energy = -455.42993534 a.u.  Excitation energy = 293.1129 eV.
 R1^2 = 0.8893  R2_CCVV^2 = 0.0018  R2_COVV^2 = 0.1098  Res^2 = 3.14e-06
 Conv-d = yes

 Amplitude    Transitions between orbitals
 -0.9430       8 (A') A                  ->    infty        
 -0.0029       10 (A') A                 ->    infty        
 -0.0016       9 (A') A                  ->    infty        
  0.0005       7 (A') A                  ->    infty        

              Summary of significant orbitals:

               Number  Type             Irrep      Energy
               7       Occ  Alpha       7 (A')    -11.3277
               8       Occ  Alpha       8 (A')    -11.3221
               9       Occ  Alpha       9 (A')    -11.3135
               10      Occ  Alpha      10 (A')    -11.2569


 EOMIP transition 4/A'
 Total energy = -455.42018061 a.u.  Excitation energy = 293.3784 eV.
 R1^2 = 0.8856  R2_CCVV^2 = 0.0018  R2_COVV^2 = 0.1135  Res^2 = 4.76e-06
 Conv-d = yes

 Amplitude    Transitions between orbitals
 -0.9410       7 (A') A                  ->    infty        
 -0.0006       8 (A') A                  ->    infty        
 -0.0003       10 (A') A                 ->    infty        

              Summary of significant orbitals:

               Number  Type             Irrep      Energy
               7       Occ  Alpha       7 (A')    -11.3277
               8       Occ  Alpha       8 (A')    -11.3221
               10      Occ  Alpha      10 (A')    -11.2569


 EOMIP transition 5/A'
 Total energy = -455.40615329 a.u.  Excitation energy = 293.7601 eV.
 R1^2 = 0.8873  R2_CCVV^2 = 0.0018  R2_COVV^2 = 0.1118  Res^2 = 5.49e-06
 Conv-d = yes

 Amplitude    Transitions between orbitals
 -0.9420       6 (A') A                  ->    infty        
 -0.0015       10 (A') A                 ->    infty        
 -0.0003       9 (A') A                  ->    infty        

              Summary of significant orbitals:

               Number  Type             Irrep      Energy
               6       Occ  Alpha       6 (A')    -11.3433
               9       Occ  Alpha       9 (A')    -11.3135
               10      Occ  Alpha      10 (A')    -11.2569


Running a double precision version
      CVS-EOMIP-CCSD/MP2 left amplitudes will be solved using Davidson.
        Amplitudes will be solved using MOM  algorithm.
     Hard-coded thresholds: 
     LinDepThresh=1.00e-15  NormThresh=1.00e-06  ReorthogonThresh=1.00e-02

      Roots     MaxVec    MaxIter   Precond   Conv      Shift    
      5         120       60        1         1.00e-05  0.00e+00  
 ------------------------------------------------------------------------------
      Iter ConvRoots NVecs ResNorm Current eigenvalues (eV)
 ------------------------------------------------------------------------------
      0    0      5     1.73e-02   292.5028   293.7793   294.0234   294.2572   294.6221   
      1    0      10    6.12e-01   291.5176   292.9806   293.1475   293.4289   293.7995   
      2    0      15    2.97e-02   291.5029   292.9382   293.1188   293.3806   293.7648   
      3    0      20    2.11e-03   291.4996   292.9394   293.1159   293.3830   293.7642   
      4    3      25    7.93e-06   291.4984*  292.9337*  293.1121   293.3770*  293.7588   
      5    3      27    1.04e-05   291.4984*  292.9337*  293.1127   293.3770*  293.7597   
      6    5      29    3.45e-06   291.4984*  292.9337*  293.1128*  293.3770*  293.7599*  

     Davidson procedure converged

 CVS-EOMIP-CCSD calculation:   CPU 476.17 s  wall 626.22 s


 Reference -- EOM-IP-CCSD state  1/A'   transition
 Energy difference = 291.4989 eV.

 Left Dyson orbital norm is 0.923270

Left alpha Dyson orbital in the MO basis (canonical Q-Chem's ordering):
0     -3.1692e-06
1     2.4119e-06
2     -3.4188e-05
3     2.3693e-06
4     1.5873e-06
5     1.6621e-03
6     2.5945e-04
7     3.0480e-03
8     1.9026e-04
9     -9.9999e-01
10    2.2506e-17
11    1.3025e-16
12    1.5683e-16
13    -1.0904e-16
14    -1.5768e-16
15    1.1781e-16
16    5.0911e-17
17    2.1039e-16
18    1.4837e-16
19    -9.1365e-17
20    1.5790e-16
21    5.2096e-17
22    2.9635e-16
23    1.6283e-16
24    1.5517e-16
25    2.1148e-16
26    1.1473e-16
27    4.5209e-17
28    2.8181e-16
29    -1.1029e-16
30    -2.1059e-16
31    2.6912e-17
32    2.9280e-16
33    1.9026e-17
34    6.4206e-17
35    -6.4846e-17
36    1.3102e-16
37    -2.6980e-18
38    -8.3679e-16
39    -2.1076e-16
40    -2.7377e-15
41    2.0948e-15
42    -1.4557e-15
43    -3.5342e-15
44    3.4071e-15
45    7.8192e-16
46    -7.3983e-16
47    -9.9127e-15
48    -5.9506e-15
49    1.8038e-15
50    -1.8282e-15
51    -8.4060e-15
52    1.2131e-15
53    1.7021e-14
54    -1.2445e-15
55    -2.4826e-15
56    -1.6072e-15
57    -1.8725e-15
58    3.2980e-15
59    -5.3113e-17
60    -9.1092e-15
61    -4.2958e-15
62    1.0628e-14
63    -4.2514e-16
64    -2.3145e-15
65    -1.0521e-14
66    4.2386e-15
67    -1.5156e-14
68    -8.1378e-16
69    4.5473e-15
70    1.5650e-15
71    -2.5966e-15
72    -1.8810e-15
73    -1.2610e-14
74    -1.5123e-16
75    1.8501e-15
76    -4.7046e-15
77    1.2507e-14
78    -8.7108e-16
79    3.3186e-15
80    -1.2036e-14
81    -4.0760e-16
82    1.6106e-15
83    1.2442e-14
84    -5.6466e-15
85    2.7645e-15
86    5.3612e-16
87    -2.2897e-15
88    -9.4752e-15
89    -1.5712e-15
90    -3.5316e-15
91    2.7244e-15
92    -3.2698e-15
93    -7.4655e-15
94    5.9299e-15
95    -4.0333e-15
96    5.2287e-15
97    -1.1176e-14
98    -9.6396e-16
99    -5.9657e-16
100   7.9607e-15
101   -2.3659e-16
102   8.8989e-16
103   -2.0024e-15
104   1.2370e-14
105   -8.2502e-16
106   -1.7030e-14
107   5.4329e-15
108   5.0286e-15
109   -3.3360e-15
110   -1.0357e-14
111   7.3749e-15
112   -7.0345e-15
113   -4.0202e-15
114   -6.1681e-15
115   2.8175e-15
116   -1.3517e-14
117   5.1831e-15
118   -3.1821e-15
119   5.6949e-15
120   5.6249e-15
121   8.7128e-16
122   -4.7119e-15
123   2.5578e-15
124   -7.4623e-15
125   -7.4740e-15
126   7.4414e-15
127   -5.5936e-15
128   -8.5917e-15
129   2.0506e-15
130   -9.4506e-16
131   1.6373e-15
132   2.5179e-15
133   7.6481e-15
134   -8.8610e-15
135   -1.7891e-15
136   6.4860e-15
137   4.7428e-15
138   -2.1815e-16
139   -6.2622e-16
140   2.5642e-16
141   7.2996e-16
142   9.1481e-17
143   -6.7217e-15
144   -7.8103e-16
145   3.9294e-15
146   -3.1201e-15
147   -1.2199e-15
148   1.5018e-15
149   6.0266e-16
150   5.9607e-16
151   -1.7438e-15
152   1.3697e-15
153   -2.4058e-15
154   5.3627e-16
155   -2.0199e-16
156   -3.0612e-15
157   6.4223e-15
158   -2.6764e-15
159   7.3621e-15
160   3.5294e-15
161   5.5027e-16
162   5.8410e-16
163   -3.0893e-15
164   4.7288e-15
165   4.8603e-15
166   -4.6321e-16
167   1.4299e-15
168   1.8097e-15
169   -1.8858e-15
170   1.6901e-16
171   -5.9590e-16
172   -3.2678e-15
173   -2.0281e-15
174   -4.6290e-16
175   2.9800e-15
176   2.9333e-15
177   -4.7705e-16
178   -2.5747e-15
179   3.6581e-17
180   7.7513e-17
181   -4.2353e-16
182   -4.7506e-17
183   -2.1141e-16
184   4.2203e-15
185   -8.4539e-16
186   -2.3483e-16
187   -3.3570e-15
188   -4.0734e-16
189   -2.3519e-15
190   -8.4690e-16
191   -1.2424e-15
192   1.2299e-15
193   -8.1730e-16
194   3.7077e-16
195   -1.7568e-16
196   1.8854e-15
197   -3.0048e-16
198   -1.0260e-15
199   -1.7587e-15
200   6.3933e-17
201   4.5502e-16
202   -3.2217e-16
203   1.6192e-15
204   4.4032e-16
205   4.7092e-15
206   -2.2658e-16
207   1.0095e-15
208   4.4514e-16
209   4.3694e-16
210   -3.6681e-17
211   1.0070e-16
212   -1.8140e-15
213   5.5761e-16
214   4.6614e-16
215   7.6049e-16
216   -2.7984e-16
217   9.8410e-16
218   -6.6025e-18
219   -1.3684e-16
220   -2.3162e-16
221   2.6669e-15
222   -2.3170e-16
223   1.3007e-15
224   -2.4072e-16
225   -6.0344e-17
226   1.4424e-16
227   -2.2289e-15
228   2.3789e-15
229   -2.8428e-16
230   -4.3905e-16
231   3.8500e-15
232   5.8178e-17
233   7.7552e-18
234   -2.8148e-15
235   5.4050e-16
236   -7.7037e-16
237   -1.5607e-15
238   -3.1495e-16
239   -1.7337e-16
240   2.1936e-15
241   1.6592e-15
242   -5.1205e-16
243   2.2222e-15
244   2.3152e-16
245   -9.6988e-18
246   1.0857e-15
247   4.0671e-16
248   -1.5798e-16
249   1.8824e-16
250   -2.1551e-15
251   2.0517e-16
252   4.0602e-17
253   -7.7933e-16
254   2.9708e-16
255   3.6152e-16
256   -9.6056e-16
257   1.9359e-15
258   2.6677e-15
259   -3.5542e-16
260   1.7990e-15
261   4.9578e-17
262   4.3495e-16
263   2.8647e-16
264   -3.1812e-15
265   -1.0866e-15
266   -5.8515e-16
267   -5.3439e-16
268   7.1140e-17
269   9.3660e-17
270   -1.0699e-15
271   1.0745e-15
272   -7.2516e-16
273   8.2021e-16
274   6.0948e-16
275   -9.5915e-16
276   -1.9974e-15
277   -5.0559e-16
278   -1.6242e-15
279   -1.1513e-15
280   1.5270e-15
281   3.4961e-15
282   2.1718e-16
283   -2.2771e-15
284   -5.2322e-16
285   5.6433e-16
286   -1.9339e-15
287   -2.3427e-16
288   2.5900e-16
289   1.3997e-15
290   -4.4375e-16
291   1.4907e-15
292   1.9342e-15
293   1.8077e-15
294   -2.0682e-15
295   1.4960e-15
296   3.4851e-15
297   3.3707e-16
298   1.7933e-16
299   -5.5787e-16
300   -3.1781e-19
301   -1.4275e-15
302   -1.0144e-15
303   -1.0345e-15
304   1.0235e-15
305   1.5969e-16
306   2.6886e-16
307   -1.3456e-16
308   2.6469e-17
309   2.1060e-17
310   -2.7088e-16
311   -8.9307e-16
312   3.4802e-16
313   -2.4584e-16
314   5.3678e-16
315   1.4886e-15
316   6.8675e-16
317   -4.0919e-16
318   -1.0080e-16
319   -3.5242e-16
320   -1.0321e-16
321   2.6013e-16
322   4.3407e-16
323   -1.4713e-16
324   -1.7698e-16
325   -2.0808e-16
326   -6.6121e-16
327   3.4034e-16
328   -2.8389e-16
329   2.5846e-16
330   1.3480e-17
331   1.4225e-16
332   2.7407e-16
333   7.7849e-17
334   -2.3907e-16
335   6.1353e-17
336   -2.7267e-16
337   6.4639e-17
338   -1.7795e-16
339   2.8622e-17
340   8.2860e-17
341   1.3068e-16

Decomposition over AOs for the left alpha Dyson orbital:
6.32180028e-09
9.74681997e-08
1.25230759e-07
1.78775660e-06
-8.17473239e-06
-4.56142635e-05
3.30860529e-05
2.04190889e-05
1.74387444e-05
-1.85922495e-15
8.48483892e-05
-5.77605353e-05
-7.58645120e-05
-6.38781065e-15
-1.31504199e-04
-9.15823627e-07
1.66579600e-04
4.49955093e-16
3.88761490e-04
-3.35420418e-04
1.25352775e-04
-3.95107084e-14
-7.12600617e-05
-1.90304754e-04
1.04710194e-04
-1.94394898e-14
4.09996641e-05
4.06665714e-16
-5.40254215e-06
8.70431209e-16
2.23681118e-05
1.01486591e-08
1.23886619e-07
2.74994567e-07
2.22344885e-06
-6.38393602e-06
-4.13951780e-05
3.32168269e-05
3.42500482e-06
2.91131374e-05
7.12321121e-16
6.32319427e-05
-2.82296922e-05
-7.75379482e-05
-2.50660618e-15
-2.10482466e-05
1.52007790e-04
-3.23680320e-07
5.37277391e-15
2.24527278e-05
1.78867262e-04
-1.05315725e-05
-4.22728738e-14
3.58368576e-05
2.13873632e-04
2.57505129e-05
-3.55253966e-15
1.86302796e-06
5.99954228e-16
-1.35745312e-05
5.06598814e-16
-4.78681488e-05
-2.99825771e-07
-2.15006029e-06
-1.15964945e-05
-3.57800297e-05
-1.22513062e-04
-2.24059802e-04
-8.35382944e-05
7.00409434e-05
8.21327335e-05
-7.89695272e-16
5.40948472e-04
5.11191427e-04
3.89371954e-04
-8.38221617e-16
-2.43830459e-04
-1.05344452e-04
-1.51588697e-04
-4.40736760e-15
-6.56658098e-04
-2.49074843e-04
-5.20833777e-05
1.25611838e-14
-6.22177498e-04
4.63453722e-05
-8.31043925e-05
1.79737325e-13
2.89318601e-04
-8.56563512e-16
-1.08840629e-04
-3.51556352e-16
1.32284757e-05
1.43827355e-08
1.77587129e-07
3.87453031e-07
3.18040468e-06
-9.83499141e-06
-6.49413729e-05
5.05714859e-05
-2.51193227e-05
2.19893945e-06
-3.17343987e-15
1.11328782e-04
9.24382482e-05
-7.77943857e-06
-3.01330237e-15
2.74042124e-05
-1.83101339e-05
-1.01677948e-04
-6.80261265e-15
7.89029617e-04
5.71734030e-04
-6.03745798e-04
9.89331521e-16
4.37381316e-04
3.29776816e-04
-3.33224759e-04
-8.72473777e-14
8.05339181e-06
2.63126125e-16
-8.18790865e-06
-5.53536172e-16
2.75352535e-05
1.16391227e-08
1.37316973e-07
3.28138598e-07
2.45072103e-06
-6.55414245e-06
-4.52727716e-05
3.67838231e-05
1.85785703e-05
-1.82602154e-05
-6.42862394e-16
7.72004424e-05
-5.75950261e-05
6.90755767e-05
-1.81975796e-15
-9.84312131e-05
-5.17738961e-05
-1.03250866e-04
-4.40074997e-15
2.67880493e-04
-7.52409135e-05
-8.62690777e-05
-3.18882680e-15
1.01024810e-04
1.06806682e-04
-1.71167764e-06
-7.81916327e-14
-4.31916300e-05
-5.87169146e-16
-4.64184328e-06
4.40323955e-16
-1.91380342e-06
4.28518805e-07
3.33385276e-06
1.65144546e-05
5.71532431e-05
1.30534895e-04
2.96030293e-05
1.91740419e-04
8.25452681e-07
4.99140309e-06
-5.40156971e-16
3.62017088e-05
6.94914578e-06
-2.40044163e-05
-3.34285430e-15
-4.16861644e-04
3.90176221e-05
5.61453325e-05
7.22302009e-16
-1.19096393e-03
4.42250591e-04
3.86745660e-04
3.58354984e-14
-8.44760106e-04
1.57234588e-04
5.60087892e-05
-1.18975027e-13
-2.31674425e-05
1.65331553e-15
-3.92141925e-07
8.68054112e-17
-3.14850651e-06
-1.41450559e-05
-1.09588724e-04
-5.46197063e-04
-1.87790849e-03
-4.41935286e-03
-1.65016876e-03
-6.01539542e-03
6.49463991e-05
-1.31944114e-04
-2.00581275e-15
4.46882656e-04
2.18521293e-04
-4.73940017e-04
-5.96674985e-15
-7.17843386e-04
-5.63351997e-05
5.76694374e-04
-8.13189520e-15
1.77324114e-04
3.10723755e-04
6.15533313e-04
8.06081470e-14
-1.65337641e-04
-4.12190999e-04
3.43997439e-04
3.61077601e-13
-2.54923869e-04
2.18501194e-15
-1.43026380e-05
1.58024588e-16
-2.03062220e-04
1.10900581e-03
8.58565211e-03
4.28276774e-02
1.47049284e-01
3.47358175e-01
1.27011191e-01
4.64969840e-01
-1.41153315e-04
-3.61261550e-04
-2.86646841e-15
2.03062255e-03
5.72338399e-05
3.26904040e-04
-7.59412159e-15
1.83556101e-03
-2.69244090e-04
-4.97928146e-05
-5.86121359e-16
8.27582046e-03
4.09959028e-03
-7.83028366e-04
-1.13182499e-13
1.02734370e-03
1.35889635e-04
-3.06269545e-04
-6.33954981e-13
-1.10330808e-04
-4.08272705e-16
-1.03993631e-04
-1.31257276e-15
5.80894368e-05
-9.14980167e-06
-7.09010726e-05
-3.53316349e-04
-1.21522046e-03
-2.85835412e-03
-1.09019163e-03
-3.90660817e-03
-1.19273843e-04
8.64126678e-06
-3.64184444e-15
4.27879780e-04
-5.62141871e-04
-1.05600296e-06
-5.92834214e-15
-1.34077543e-04
4.96315169e-04
7.83718562e-05
-8.56112400e-15
-9.33586384e-03
2.65286213e-03
2.41426107e-04
7.51173979e-14
4.04614947e-04
-1.70834468e-06
3.74466018e-04
4.14382528e-13
3.58540091e-06
-1.47323142e-15
-3.77587559e-05
2.80525330e-16
3.21150702e-04
4.63509083e-07
3.58755482e-06
1.79084138e-05
6.13706848e-05
1.43219968e-04
2.43117446e-05
2.03855079e-04
-8.66670287e-07
1.26499266e-05
-9.39575522e-16
1.15839484e-04
7.65712666e-05
-5.37318172e-05
-2.65724166e-15
-4.29146866e-04
-1.26808963e-04
-7.87242892e-05
-1.22992157e-15
1.27187542e-03
4.59183323e-04
1.74597966e-04
-1.77566093e-14
-3.50438846e-04
-6.93370819e-05
2.43749731e-06
3.02432358e-14
-7.31653492e-05
-1.35104465e-15
1.70955131e-05
-6.78448711e-16
-3.44495860e-06
1.40231428e-05
2.27047919e-06
2.69941831e-04
6.51010913e-04
9.23681549e-06
-6.28600654e-06
-1.34610911e-15
1.54390374e-05
6.13677578e-05
-1.01708618e-04
2.47047547e-04
3.05579234e-05
9.09260312e-06
3.87465918e-16
1.46767677e-06
4.86154339e-05
-7.25910271e-05
-3.75090037e-04
-6.57717904e-06
-9.45655895e-06
-2.35034570e-16
5.62076361e-06
-1.15609170e-05
-1.14975757e-04
2.52704976e-05
8.62708044e-07
4.92904753e-06
-3.30893176e-16
7.48482349e-06
4.79359384e-05
-4.52784679e-05
-1.84068054e-04
-1.22851242e-05
3.99833371e-06
-3.34481693e-16
   *****

 Right Dyson orbital norm is 0.945393

Right alpha Dyson orbital in the MO basis (canonical Q-Chem's ordering):
0     -2.9832e-06
1     2.2629e-06
2     -3.1498e-05
3     2.0746e-06
4     1.2374e-06
5     1.6734e-03
6     2.2797e-04
7     3.0579e-03
8     1.6413e-04
9     -9.9999e-01
10    2.2027e-17
11    1.2764e-16
12    1.5545e-16
13    -1.0996e-16
14    -1.5660e-16
15    1.1202e-16
16    5.1320e-17
17    2.0951e-16
18    1.4954e-16
19    -9.0762e-17
20    1.5640e-16
21    5.2327e-17
22    2.9491e-16
23    1.6283e-16
24    1.5616e-16
25    2.1016e-16
26    1.1536e-16
27    4.5202e-17
28    2.8176e-16
29    -1.0884e-16
30    -2.1023e-16
31    2.6917e-17
32    2.9339e-16
33    1.9023e-17
34    6.4211e-17
35    -6.4619e-17
36    1.3185e-16
37    -2.9057e-18
38    -8.3670e-16
39    -2.1098e-16
40    -2.7379e-15
41    2.0946e-15
42    -1.4555e-15
43    -3.5345e-15
44    3.4071e-15
45    7.8220e-16
46    -7.3981e-16
47    -9.9120e-15
48    -5.9508e-15
49    1.8042e-15
50    -1.8280e-15
51    -8.4064e-15
52    1.2137e-15
53    1.7022e-14
54    -1.2448e-15
55    -2.4822e-15
56    -1.6070e-15
57    -1.8725e-15
58    3.2979e-15
59    -5.3133e-17
60    -9.1086e-15
61    -4.2965e-15
62    1.0627e-14
63    -4.2512e-16
64    -2.3151e-15
65    -1.0520e-14
66    4.2395e-15
67    -1.5157e-14
68    -8.1460e-16
69    4.5470e-15
70    1.5648e-15
71    -2.5966e-15
72    -1.8804e-15
73    -1.2611e-14
74    -1.5124e-16
75    1.8501e-15
76    -4.7040e-15
77    1.2507e-14
78    -8.7103e-16
79    3.3178e-15
80    -1.2036e-14
81    -4.0983e-16
82    1.6103e-15
83    1.2441e-14
84    -5.6453e-15
85    2.7643e-15
86    5.3588e-16
87    -2.2894e-15
88    -9.4754e-15
89    -1.5710e-15
90    -3.5312e-15
91    2.7238e-15
92    -3.2694e-15
93    -7.4661e-15
94    5.9295e-15
95    -4.0337e-15
96    5.2290e-15
97    -1.1177e-14
98    -9.6400e-16
99    -5.9651e-16
100   7.9612e-15
101   -2.3692e-16
102   8.8955e-16
103   -2.0023e-15
104   1.2369e-14
105   -8.2499e-16
106   -1.7029e-14
107   5.4309e-15
108   5.0281e-15
109   -3.3357e-15
110   -1.0357e-14
111   7.3734e-15
112   -7.0336e-15
113   -4.0202e-15
114   -6.1678e-15
115   2.8171e-15
116   -1.3515e-14
117   5.1838e-15
118   -3.1818e-15
119   5.6951e-15
120   5.6246e-15
121   8.7094e-16
122   -4.7117e-15
123   2.5576e-15
124   -7.4630e-15
125   -7.4716e-15
126   7.4409e-15
127   -5.5945e-15
128   -8.5898e-15
129   2.0543e-15
130   -9.4716e-16
131   1.6386e-15
132   2.5179e-15
133   7.6495e-15
134   -8.8604e-15
135   -1.7892e-15
136   6.4857e-15
137   4.7425e-15
138   -2.1812e-16
139   -6.2615e-16
140   2.5644e-16
141   7.2985e-16
142   9.1442e-17
143   -6.7210e-15
144   -7.8094e-16
145   3.9291e-15
146   -3.1202e-15
147   -1.2193e-15
148   1.5017e-15
149   6.0213e-16
150   5.9636e-16
151   -1.7444e-15
152   1.3696e-15
153   -2.4026e-15
154   5.3622e-16
155   -2.0205e-16
156   -3.0635e-15
157   6.4219e-15
158   -2.6738e-15
159   7.3610e-15
160   3.5301e-15
161   5.5021e-16
162   5.8405e-16
163   -3.0879e-15
164   4.7263e-15
165   4.8595e-15
166   -4.6200e-16
167   1.4297e-15
168   1.8101e-15
169   -1.8876e-15
170   1.6897e-16
171   -5.9502e-16
172   -3.2702e-15
173   -2.0282e-15
174   -4.6285e-16
175   2.9797e-15
176   2.9318e-15
177   -4.7702e-16
178   -2.5748e-15
179   3.6562e-17
180   7.7499e-17
181   -4.2564e-16
182   -4.7504e-17
183   -2.1138e-16
184   4.2202e-15
185   -8.4534e-16
186   -2.3482e-16
187   -3.3558e-15
188   -4.0732e-16
189   -2.3524e-15
190   -8.4731e-16
191   -1.2420e-15
192   1.2299e-15
193   -8.1676e-16
194   3.7083e-16
195   -1.7567e-16
196   1.8855e-15
197   -3.0050e-16
198   -1.0281e-15
199   -1.7578e-15
200   6.3947e-17
201   4.5532e-16
202   -3.2230e-16
203   1.6193e-15
204   4.4030e-16
205   4.7096e-15
206   -2.2656e-16
207   1.0067e-15
208   4.4491e-16
209   4.3692e-16
210   -3.6768e-17
211   1.0066e-16
212   -1.8137e-15
213   5.5764e-16
214   4.6584e-16
215   7.6070e-16
216   -2.7983e-16
217   9.8510e-16
218   -6.5994e-18
219   -1.3685e-16
220   -2.3187e-16
221   2.6668e-15
222   -2.3171e-16
223   1.3008e-15
224   -2.4071e-16
225   -6.0352e-17
226   1.4426e-16
227   -2.2281e-15
228   2.3787e-15
229   -2.8427e-16
230   -4.3905e-16
231   3.8486e-15
232   5.8863e-17
233   7.7496e-18
234   -2.8148e-15
235   5.3957e-16
236   -7.7034e-16
237   -1.5608e-15
238   -3.1408e-16
239   -1.7335e-16
240   2.1932e-15
241   1.6589e-15
242   -5.1199e-16
243   2.2220e-15
244   2.3150e-16
245   -9.7656e-18
246   1.0856e-15
247   4.0667e-16
248   -1.5797e-16
249   1.9064e-16
250   -2.1548e-15
251   2.0520e-16
252   4.0480e-17
253   -7.7923e-16
254   2.9764e-16
255   3.6083e-16
256   -9.5886e-16
257   1.9357e-15
258   2.6659e-15
259   -3.5502e-16
260   1.8004e-15
261   4.9757e-17
262   4.3490e-16
263   2.8723e-16
264   -3.1823e-15
265   -1.0867e-15
266   -5.8514e-16
267   -5.3436e-16
268   7.1119e-17
269   9.3669e-17
270   -1.0698e-15
271   1.0746e-15
272   -7.2638e-16
273   8.1780e-16
274   6.0786e-16
275   -9.6055e-16
276   -1.9974e-15
277   -5.0612e-16
278   -1.6245e-15
279   -1.1516e-15
280   1.5241e-15
281   3.4968e-15
282   2.1714e-16
283   -2.2790e-15
284   -5.2270e-16
285   5.6341e-16
286   -1.9430e-15
287   -2.3422e-16
288   2.5907e-16
289   1.3984e-15
290   -4.4351e-16
291   1.4907e-15
292   1.9297e-15
293   1.8071e-15
294   -2.0671e-15
295   1.4976e-15
296   3.4871e-15
297   3.3709e-16
298   1.7924e-16
299   -5.5781e-16
300   -2.7594e-19
301   -1.4275e-15
302   -1.0194e-15
303   -1.0333e-15
304   1.0229e-15
305   1.6050e-16
306   2.6824e-16
307   -1.3454e-16
308   2.6501e-17
309   2.1062e-17
310   -2.7082e-16
311   -8.9307e-16
312   3.4582e-16
313   -2.4559e-16
314   5.3719e-16
315   1.4883e-15
316   6.8695e-16
317   -4.0918e-16
318   -1.0077e-16
319   -3.5244e-16
320   -1.0319e-16
321   2.6012e-16
322   4.3391e-16
323   -1.4694e-16
324   -1.7691e-16
325   -2.0820e-16
326   -6.6191e-16
327   3.4035e-16
328   -2.8392e-16
329   2.5848e-16
330   1.3471e-17
331   1.4224e-16
332   2.7415e-16
333   7.7838e-17
334   -2.3907e-16
335   6.1324e-17
336   -2.7276e-16
337   6.4639e-17
338   -1.7796e-16
339   2.8631e-17
340   8.2872e-17
341   1.3068e-16

Decomposition over AOs for the right alpha Dyson orbital:
5.95099861e-09
9.46409868e-08
1.11411271e-07
1.74074537e-06
-8.28731035e-06
-4.56564406e-05
3.29273184e-05
2.04225789e-05
1.74371657e-05
-1.85925570e-15
8.48248191e-05
-5.77487684e-05
-7.58738345e-05
-6.38760922e-15
-1.31497373e-04
-9.19998689e-07
1.66579679e-04
4.49343856e-16
3.88750733e-04
-3.35405130e-04
1.25345320e-04
-3.95062625e-14
-7.12676395e-05
-1.90293205e-04
1.04696141e-04
-1.94363514e-14
4.10040446e-05
4.06652783e-16
-5.39898275e-06
8.70436354e-16
2.23716206e-05
9.83702303e-09
1.21509990e-07
2.63382085e-07
2.18393121e-06
-6.47842868e-06
-4.14297534e-05
3.30833695e-05
3.42180817e-06
2.91157909e-05
7.12284832e-16
6.32086262e-05
-2.82425028e-05
-7.75305852e-05
-2.50630124e-15
-2.10331017e-05
1.52005480e-04
-3.30354144e-07
5.37192145e-15
2.24681631e-05
1.78854543e-04
-1.05368683e-05
-4.22680957e-14
3.58393684e-05
2.13866628e-04
2.57425283e-05
-3.55160678e-15
1.86460591e-06
5.99942341e-16
-1.35711222e-05
5.06603418e-16
-4.78733619e-05
-2.96861235e-07
-2.12749238e-06
-1.14858834e-05
-3.54047082e-05
-1.21604628e-04
-2.23666183e-04
-8.22749084e-05
7.00452666e-05
8.21359187e-05
-7.89585424e-16
5.40939607e-04
5.11205943e-04
3.89359551e-04
-8.38093075e-16
-2.43818180e-04
-1.05349074e-04
-1.51579235e-04
-4.40686206e-15
-6.56670544e-04
-2.49060613e-04
-5.20952221e-05
1.25590611e-14
-6.22172679e-04
4.63451343e-05
-8.30992284e-05
1.79722537e-13
2.89325934e-04
-8.56536916e-16
-1.08838562e-04
-3.51568070e-16
1.32249821e-05
1.41910641e-08
1.76120799e-07
3.80323308e-07
3.15601588e-06
-9.89209141e-06
-6.49571606e-05
5.04873412e-05
-2.51194458e-05
2.20168640e-06
-3.17341967e-15
1.11301185e-04
9.24341543e-05
-7.75782131e-06
-3.01337848e-15
2.74094913e-05
-1.83088187e-05
-1.01675713e-04
-6.80234756e-15
7.89064171e-04
5.71731468e-04
-6.03744495e-04
9.89475929e-16
4.37378486e-04
3.29780460e-04
-3.33213758e-04
-8.72390244e-14
8.04723158e-06
2.63086770e-16
-8.18299183e-06
-5.53528892e-16
2.75418412e-05
1.14794121e-08
1.36098369e-07
3.22187742e-07
2.43045148e-06
-6.60247520e-06
-4.52905123e-05
3.67147964e-05
1.85790749e-05
-1.82610524e-05
-6.42754638e-16
7.71900450e-05
-5.75900996e-05
6.90662156e-05
-1.81950551e-15
-9.84179641e-05
-5.17767780e-05
-1.03244534e-04
-4.40064416e-15
2.67893498e-04
-7.52480754e-05
-8.62654349e-05
-3.18743236e-15
1.01026903e-04
1.06792472e-04
-1.71247446e-06
-7.81858186e-14
-4.31879693e-05
-5.87143554e-16
-4.64075189e-06
4.40301443e-16
-1.91135330e-06
3.99530142e-07
3.10943497e-06
1.53949496e-05
5.33096931e-05
1.21454972e-04
2.62958714e-05
1.79580118e-04
8.30030704e-07
5.00026543e-06
-5.40232399e-16
3.61568203e-05
6.94985102e-06
-2.40058526e-05
-3.34259218e-15
-4.16873591e-04
3.90273355e-05
5.61626493e-05
7.21683057e-16
-1.19092959e-03
4.42228452e-04
3.86724618e-04
3.58320407e-14
-8.44635465e-04
1.57212650e-04
5.59993547e-05
-1.18966491e-13
-2.31667564e-05
1.65330268e-15
-3.87554876e-07
8.67485860e-17
-3.14917694e-06
-1.41560063e-05
-1.09673499e-04
-5.46619948e-04
-1.87936042e-03
-4.42278244e-03
-1.65141716e-03
-6.01998921e-03
6.49555170e-05
-1.31948322e-04
-2.00579135e-15
4.46857075e-04
2.18513091e-04
-4.73937160e-04
-5.96668930e-15
-7.17838754e-04
-5.63282141e-05
5.76671504e-04
-8.13153949e-15
1.77125946e-04
3.10727315e-04
6.15549210e-04
8.05978353e-14
-1.65347589e-04
-4.12196848e-04
3.43970842e-04
3.61048584e-13
-2.54923787e-04
2.18499333e-15
-1.43007064e-05
1.58095905e-16
-2.03059540e-04
1.10900560e-03
8.58565047e-03
4.28276692e-02
1.47049256e-01
3.47358109e-01
1.27011168e-01
4.64969753e-01
-1.41154112e-04
-3.61262900e-04
-2.86645574e-15
2.03061225e-03
5.72303189e-05
3.26901833e-04
-7.59371812e-15
1.83554989e-03
-2.69239359e-04
-4.98026492e-05
-5.86709235e-16
8.27551490e-03
4.09934754e-03
-7.82967543e-04
-1.13167798e-13
1.02724500e-03
1.35892378e-04
-3.06275753e-04
-6.33902599e-13
-1.10329644e-04
-4.08350791e-16
-1.03994008e-04
-1.31256622e-15
5.80899366e-05
-9.16237511e-06
-7.09984119e-05
-3.53801917e-04
-1.21688758e-03
-2.86229217e-03
-1.09162416e-03
-3.91188325e-03
-1.19279975e-04
8.64595006e-06
-3.64173834e-15
4.27855239e-04
-5.62135206e-04
-1.06339307e-06
-5.92815591e-15
-1.34094771e-04
4.96305182e-04
7.83904480e-05
-8.56069374e-15
-9.33539398e-03
2.65272065e-03
2.41429081e-04
7.51068133e-14
4.04568764e-04
-1.69966800e-06
3.74453480e-04
4.14350558e-13
3.58330682e-06
-1.47325097e-15
-3.77557846e-05
2.80526072e-16
3.21148969e-04
4.28552318e-07
3.31693295e-06
1.65584329e-05
5.67357673e-05
1.32270749e-04
2.03200988e-05
1.89192776e-04
-8.70173848e-07
1.26243276e-05
-9.39475606e-16
1.15784252e-04
7.65684580e-05
-5.37129550e-05
-2.65711532e-15
-4.29168504e-04
-1.26826436e-04
-7.87383536e-05
-1.22985244e-15
1.27179929e-03
4.59165721e-04
1.74591133e-04
-1.77551491e-14
-3.50408973e-04
-6.93315825e-05
2.43887841e-06
3.02405863e-14
-7.31626847e-05
-1.35108799e-15
1.70995835e-05
-6.78415351e-16
-3.45129129e-06
1.40220615e-05
2.26771715e-06
2.69939432e-04
6.51006303e-04
9.23549940e-06
-6.28422109e-06
-1.34611634e-15
1.54278748e-05
6.13546540e-05
-1.01713706e-04
2.47052378e-04
3.05499903e-05
9.08944677e-06
3.87498900e-16
1.45791847e-06
4.86001068e-05
-7.25912564e-05
-3.75056956e-04
-6.57213899e-06
-9.44954830e-06
-2.35045961e-16
5.62039001e-06
-1.15621395e-05
-1.14974608e-04
2.52623709e-05
8.62639035e-07
4.92820191e-06
-3.30823288e-16
7.48439867e-06
4.79343050e-05
-4.52723425e-05
-1.84048345e-04
-1.22843700e-05
3.99817132e-06
-3.34401242e-16
   *****

     End transition


 Reference -- EOM-IP-CCSD state  2/A'   transition
 Energy difference = 292.9346 eV.

 Left Dyson orbital norm is 0.920251

Left alpha Dyson orbital in the MO basis (canonical Q-Chem's ordering):
0     2.8424e-07
1     -2.8510e-07
2     -1.4250e-07
3     -4.4003e-05
4     -4.2233e-05
5     -3.0668e-04
6     -4.3341e-05
7     -1.7400e-03
8     1.0000e+00
9     1.5852e-04
10    -7.6253e-17
11    1.2386e-16
12    -6.2636e-17
13    1.6742e-17
14    3.4187e-19
15    -9.4004e-17
16    5.9531e-17
17    -5.4163e-16
18    1.0028e-16
19    3.9927e-16
20    -2.3998e-16
21    3.2021e-16
22    1.0332e-16
23    -1.0374e-16
24    -3.2116e-16
25    5.7431e-16
26    2.2396e-16
27    5.1945e-17
28    5.3538e-16
29    5.9609e-17
30    -2.3442e-16
31    -1.5139e-16
32    -4.1645e-16
33    1.2403e-16
34    3.1783e-17
35    -4.6631e-16
36    -2.5334e-15
37    -2.2025e-15
38    -1.6466e-15
39    -1.6780e-15
40    4.3490e-16
41    1.2514e-15
42    -2.9971e-15
43    1.2506e-15
44    -4.1516e-15
45    -4.9128e-15
46    -3.8861e-16
47    -1.0977e-14
48    8.9939e-16
49    8.2314e-16
50    -3.1970e-15
51    -1.3220e-14
52    -3.2526e-15
53    -2.6018e-17
54    5.3456e-15
55    -2.8718e-15
56    -4.1175e-15
57    -7.3746e-16
58    7.8449e-15
59    -5.2272e-16
60    -7.2057e-15
61    6.4813e-15
62    6.8092e-15
63    7.5778e-16
64    9.3519e-15
65    -1.3420e-14
66    -1.0645e-14
67    -5.6844e-15
68    7.8354e-15
69    3.7598e-15
70    -2.7743e-15
71    3.6394e-15
72    1.8522e-15
73    -8.9671e-15
74    -3.0523e-16
75    -5.9338e-15
76    -5.4964e-15
77    1.3174e-14
78    -4.6396e-16
79    7.3122e-15
80    -8.1355e-15
81    1.2776e-14
82    4.0826e-15
83    2.1602e-14
84    -2.7990e-14
85    3.3431e-15
86    -1.0682e-15
87    -5.0167e-15
88    1.4736e-15
89    -4.4430e-15
90    -7.7164e-16
91    2.0011e-14
92    -6.1292e-15
93    -5.0861e-15
94    2.8013e-16
95    -7.5136e-15
96    1.5919e-14
97    2.2118e-14
98    7.8268e-16
99    -9.7210e-16
100   -1.9048e-14
101   -1.5056e-14
102   3.1959e-14
103   -2.2001e-15
104   -9.3024e-15
105   -6.7217e-16
106   -2.7885e-14
107   4.6579e-14
108   1.1712e-14
109   -5.7894e-15
110   -2.6798e-14
111   1.4701e-14
112   -2.2354e-14
113   -4.7147e-15
114   -7.0989e-15
115   6.1860e-15
116   -3.3309e-14
117   -4.3755e-14
118   -6.4493e-15
119   9.8797e-15
120   -2.1011e-14
121   3.8073e-15
122   2.9612e-17
123   9.9293e-15
124   1.0688e-14
125   -8.4847e-15
126   -3.3708e-15
127   -7.9659e-15
128   -6.9830e-15
129   -1.5371e-15
130   -8.2326e-15
131   4.2021e-15
132   4.7110e-15
133   -4.6574e-15
134   -1.8047e-14
135   -2.8676e-16
136   1.8092e-14
137   1.2243e-14
138   -9.2363e-16
139   -8.8172e-16
140   -6.5481e-15
141   1.4215e-15
142   -3.5212e-16
143   -2.1689e-14
144   -2.0101e-15
145   4.1207e-15
146   6.0025e-15
147   4.4265e-16
148   5.6120e-15
149   9.5969e-15
150   -1.2089e-14
151   3.3888e-15
152   8.6923e-15
153   -1.0560e-14
154   6.7146e-16
155   7.8277e-16
156   -3.9806e-15
157   7.9838e-15
158   -1.1056e-14
159   -1.3258e-15
160   -9.8769e-15
161   9.4338e-16
162   9.4096e-16
163   -8.9586e-15
164   6.5529e-15
165   1.3627e-14
166   3.7310e-15
167   3.6293e-15
168   -3.7668e-17
169   5.2801e-16
170   8.5104e-16
171   3.6945e-15
172   -2.2024e-16
173   3.9768e-15
174   -1.0573e-15
175   5.1503e-15
176   4.1335e-15
177   -7.1059e-16
178   -4.5890e-15
179   4.4987e-16
180   3.7178e-16
181   -2.5148e-15
182   -4.4872e-17
183   -3.8319e-16
184   -2.8147e-15
185   1.6567e-15
186   -2.2526e-16
187   -3.1170e-15
188   -4.2302e-16
189   -9.5459e-15
190   1.3165e-14
191   -6.7096e-15
192   6.7439e-16
193   -5.2454e-15
194   1.9591e-15
195   -5.7395e-16
196   2.4393e-16
197   1.7362e-16
198   -3.4230e-15
199   -5.1067e-15
200   -3.7728e-16
201   -2.3554e-15
202   -1.1448e-15
203   -3.7393e-15
204   4.7768e-16
205   1.7906e-15
206   -4.4323e-16
207   4.6721e-15
208   -1.1009e-15
209   6.4594e-16
210   4.4234e-15
211   1.4923e-15
212   2.0791e-16
213   -1.5940e-16
214   -1.5251e-15
215   3.1275e-15
216   3.4922e-17
217   8.0103e-15
218   2.6965e-16
219   -2.0601e-16
220   -5.1469e-16
221   5.1901e-15
222   -2.9090e-16
223   -3.6814e-15
224   9.6690e-17
225   2.2654e-16
226   -5.9290e-16
227   1.0546e-15
228   5.3278e-15
229   -2.7903e-16
230   -1.6188e-15
231   6.5960e-15
232   2.5338e-15
233   4.5198e-16
234   -4.7403e-15
235   -1.5865e-15
236   -2.9630e-16
237   -2.5001e-15
238   -3.2009e-15
239   1.0049e-15
240   5.0756e-15
241   -3.0994e-15
242   -8.8489e-16
243   7.8014e-15
244   3.5726e-16
245   5.2855e-16
246   2.5728e-15
247   5.1017e-16
248   5.9539e-16
249   5.9238e-15
250   -3.3385e-15
251   -5.8013e-16
252   2.4286e-15
253   -2.1866e-15
254   3.9894e-15
255   1.4749e-16
256   1.6624e-15
257   8.3958e-15
258   -5.2169e-15
259   4.4223e-15
260   -5.5984e-16
261   3.1612e-15
262   2.5143e-15
263   1.0139e-15
264   -9.9014e-16
265   -7.2455e-16
266   -3.1050e-16
267   1.4981e-16
268   3.4273e-17
269   -7.2490e-17
270   -1.8048e-15
271   1.4143e-15
272   -4.3244e-15
273   5.6078e-15
274   2.3299e-15
275   -4.0116e-17
276   8.5555e-16
277   1.7436e-16
278   1.4757e-15
279   1.4022e-15
280   2.5365e-15
281   1.0298e-15
282   -8.6254e-16
283   -3.3623e-15
284   -1.6906e-16
285   -1.9453e-15
286   2.5256e-15
287   2.0680e-15
288   6.2092e-16
289   1.7819e-15
290   -2.0669e-15
291   1.9443e-15
292   2.9480e-16
293   7.0654e-16
294   3.6976e-15
295   -4.2333e-15
296   -1.2101e-15
297   5.3318e-16
298   -2.5471e-16
299   -6.0033e-16
300   -1.3172e-15
301   -6.7656e-16
302   -1.0704e-15
303   9.7913e-16
304   -6.4232e-17
305   1.9312e-15
306   2.2515e-16
307   -5.4218e-16
308   -7.7479e-17
309   -3.5014e-17
310   -7.4926e-16
311   -6.6123e-16
312   4.1268e-16
313   1.2020e-16
314   -4.8346e-16
315   8.8951e-16
316   -8.7478e-17
317   -2.7292e-16
318   -2.6130e-16
319   1.1147e-16
320   -3.4892e-16
321   8.4866e-16
322   -2.2872e-16
323   -8.2669e-17
324   -2.2939e-17
325   -1.9053e-16
326   2.0854e-16
327   -1.0678e-16
328   4.8613e-16
329   -5.5824e-16
330   2.9240e-16
331   3.7863e-16
332   1.5772e-16
333   2.7906e-16
334   -3.4222e-17
335   3.3025e-17
336   -1.3769e-16
337   -7.5420e-17
338   -4.5912e-17
339   -2.2553e-16
340   -2.0373e-16
341   -2.0622e-16

Decomposition over AOs for the left alpha Dyson orbital:
-3.76127624e-07
-2.77154363e-06
-1.43755990e-05
-4.63397175e-05
-1.37715052e-04
-2.09002882e-04
-1.50424495e-04
-7.34634349e-05
1.04333246e-04
1.80313211e-15
5.64693008e-04
-3.06915430e-04
6.09571166e-04
-2.84219651e-15
-9.27889024e-05
9.36440690e-05
-1.31514361e-04
1.30485661e-14
-2.91745242e-04
1.27131431e-06
6.56100672e-05
-6.96368999e-14
-3.04270349e-04
4.49694918e-05
2.08541079e-04
-4.26873905e-14
-2.90691820e-04
-9.67160868e-17
-9.71208961e-05
-4.66039968e-16
-1.00069575e-04
-3.92448791e-07
-2.91262977e-06
-1.49500825e-05
-4.87511217e-05
-1.39154791e-04
-1.95915167e-04
-1.69438669e-04
1.34336645e-04
-3.35024417e-05
-5.16225905e-16
5.35338800e-04
6.55449183e-04
-7.25826098e-05
-7.27026993e-15
1.10489884e-04
-1.42170803e-04
-4.25619127e-05
1.33235952e-14
3.59096194e-04
[...]
-1.12452383e-15
1.16709734e-04
3.15046004e-05
-1.39690883e-04
2.69005596e-16
-9.42944234e-05
-1.25279536e-04
4.02606046e-05
-5.56938885e-15
-4.48071856e-05
2.08329649e-04
-4.75706885e-05
-1.82804651e-14
-1.69534279e-03
9.91824227e-05
2.63893393e-04
4.73947178e-14
-5.41572478e-05
6.92985298e-16
1.65483190e-07
-1.10032998e-16
-5.29821843e-05
1.40091846e-07
1.12762207e-06
5.31501315e-06
1.94364354e-05
3.41566100e-05
-3.93167706e-05
8.82266406e-05
-2.05045202e-05
1.68099541e-05
-6.04191869e-16
1.25863584e-04
1.04984579e-04
-1.12067150e-04
-1.08596266e-15
-3.83422245e-04
3.87176268e-04
4.58866445e-04
-1.42058485e-15
-6.30754398e-04
3.17060224e-04
5.12662952e-04
-4.89600406e-14
1.63419351e-04
-3.54587307e-04
1.58460398e-04
-1.49738341e-13
-8.71947587e-05
1.95423949e-16
-3.65894735e-06
-1.75936008e-16
-2.09477143e-05
8.70975662e-06
6.73594036e-05
3.36396500e-04
1.15282125e-03
2.73722453e-03
9.73962357e-04
3.57814068e-03
1.11098872e-04
-6.24525291e-06
-2.11441556e-15
3.81360473e-04
4.84074297e-04
-1.53299522e-04
-4.23537246e-15
-7.92159763e-04
-1.81569585e-03
6.77340488e-05
-1.02585367e-14
1.17018337e-02
3.92498757e-03
2.64747413e-04
6.94356711e-14
1.83456249e-03
1.40360005e-04
-3.36649819e-04
2.63618083e-13
-4.91154480e-05
-6.10055687e-17
-2.03708670e-05
-3.56451271e-16
2.57002776e-04
1.10940088e-03
8.58848037e-03
4.28437311e-02
1.47093632e-01
3.47502017e-01
1.26610789e-01
4.65337020e-01
5.36508207e-04
-3.72125955e-04
-1.51855669e-15
1.61788979e-03
-4.71209872e-04
3.99475634e-04
-7.14486899e-15
2.95628138e-03
-4.64750561e-04
-7.73692416e-05
-4.14811991e-15
-1.11684231e-02
4.07419827e-03
-1.23791831e-03
-5.33923214e-14
6.82007515e-04
1.03513579e-04
8.55570892e-04
-1.64789895e-13
6.62243145e-05
6.16825717e-16
-2.61355629e-04
-3.75023437e-16
1.13957250e-04
-7.27911762e-08
-5.34047541e-07
-2.87981781e-06
-9.05786820e-06
-2.91116938e-05
-4.23189293e-05
-1.31334918e-05
5.31723826e-07
2.67738602e-06
-1.12588737e-15
1.17259726e-04
3.09736620e-05
-2.02784180e-05
-1.28547207e-15
-1.76365827e-04
-2.90505387e-04
-2.42655054e-04
-1.98744286e-15
1.35563547e-03
2.39542022e-04
-9.34068197e-05
6.54937704e-15
-9.69583415e-04
-1.50317812e-04
-1.36093610e-04
1.55190946e-15
-1.17226562e-05
1.63741000e-16
8.96004876e-06
-3.50076223e-16
6.97976295e-06
5.61329348e-06
-6.12019254e-05
-7.58379778e-06
2.03268209e-04
-5.99434639e-06
9.29878282e-06
1.46246337e-16
1.05287217e-05
-8.29834127e-05
-1.85522855e-04
3.37181087e-06
-8.89388023e-06
3.29696140e-07
-5.13923596e-16
9.46246597e-06
7.96823042e-05
-6.79331428e-05
-7.37630127e-05
-7.48396616e-06
-2.74806250e-05
7.76042335e-17
2.73149579e-05
8.42700020e-05
-1.23747103e-04
-2.21739479e-04
1.95343790e-05
5.94447462e-05
-1.18109424e-15
3.17875965e-05
2.48573627e-05
7.37481368e-05
-5.85118768e-04
-5.00829120e-05
8.04711589e-06
-1.24669562e-15
   *****

     End transition

 Dyson orbitals calculation:   CPU 0.28 s  wall 0.21 s

 Total ccman2 time:   CPU 36384.83 s  wall 38838.21 s


 --------------------------------------------------------------
             Orbital Energies (a.u.) and Symmetries
 --------------------------------------------------------------

 Alpha MOs, Restricted
 -- Occupied --                  
-15.634 -15.587 -15.572 -15.559 -15.552 -11.343 -11.328 -11.322
  1 A'    2 A'    3 A'    4 A'    5 A'    6 A'    7 A'    8 A'                 
-11.313 -11.257  -1.374  -1.307  -1.253  -1.192  -1.157  -1.040
  9 A'   10 A'   11 A'   12 A'   13 A'   14 A'   15 A'   16 A'                 
 -0.901  -0.882  -0.849  -0.785  -0.745  -0.703  -0.683  -0.641
 17 A'   18 A'   19 A'   20 A'   21 A'   22 A'   23 A'    1 A"                 
 -0.639  -0.619  -0.597  -0.561  -0.500  -0.497  -0.452  -0.426
 24 A'   25 A'   26 A'    2 A"    3 A"   27 A'   28 A'    4 A"                 
 -0.411  -0.375  -0.312
 29 A'    5 A"    6 A"                                                         
 -- Virtual --                   
  0.010   0.016   0.021   0.024   0.028   0.029   0.033   0.036
 30 A'   31 A'   32 A'    7 A"   33 A'   34 A'    8 A"    9 A"                 
  0.037   0.041   0.042   0.049   0.052   0.052   0.055   0.057
 35 A'   36 A'   37 A'   38 A'   10 A"   39 A'   40 A'   11 A"                 
  0.059   0.061   0.065   0.071   0.080   0.081   0.082   0.082
 41 A'   42 A'   43 A'   44 A'   45 A'   12 A"   13 A"   46 A'                 
  0.091   0.091   0.092   0.099   0.100   0.102   0.103   0.104
 14 A"   47 A'   48 A'   49 A'   15 A"   50 A'   16 A"   51 A'                 
  0.107   0.112   0.116   0.118   0.123   0.131   0.138   0.141
 52 A'   53 A'   17 A"   54 A'   55 A'   56 A'   57 A'   18 A"                 
  0.149   0.150   0.159   0.164   0.180   0.199   0.203   0.210
 58 A'   59 A'   60 A'   19 A"   61 A'   62 A'   63 A'   20 A"                 
  0.212   0.215   0.222   0.226   0.226   0.231   0.233   0.234
 64 A'   65 A'   21 A"   66 A'   22 A"   67 A'   23 A"   68 A'                 
  0.238   0.242   0.248   0.262   0.268   0.284   0.287   0.293
 69 A'   24 A"   70 A'   71 A'   72 A'   73 A'   74 A'   25 A"                 
  0.303   0.309   0.323   0.333   0.335   0.339   0.339   0.346
 26 A"   75 A'   76 A'   77 A'   27 A"   78 A'   28 A"   79 A'                 
  0.351   0.363   0.368   0.371   0.384   0.390   0.401   0.414
 80 A'   81 A'   29 A"   82 A'   83 A'   84 A'   85 A'   86 A'                 
  0.416   0.420   0.429   0.439   0.456   0.460   0.472   0.474
 30 A"   87 A'   88 A'   89 A'   90 A'   91 A'   92 A'   93 A'                 
  0.477   0.494   0.504   0.517   0.536   0.550   0.575   0.587
 94 A'   95 A'   96 A'   97 A'   98 A'   99 A'  100 A'  101 A'                 
  0.614   0.646   0.664   0.692   0.724   0.769   0.773   0.775
102 A'  103 A'  104 A'  105 A'  106 A'  107 A'  108 A'   31 A"                 
  0.787   0.805   0.813   0.821   0.834   0.870   0.888   0.914
 32 A"  109 A'   33 A"   34 A"  110 A'   35 A"  111 A'  112 A'                 
  0.935   0.959   0.984   0.999   1.029   1.037   1.051   1.063
113 A'  114 A'  115 A'  116 A'  117 A'  118 A'  119 A'   36 A"                 
  1.078   1.085   1.096   1.113   1.118   1.127   1.136   1.140
 37 A"  120 A'  121 A'  122 A'  123 A'  124 A'   38 A"   39 A"                 
  1.142   1.152   1.172   1.184   1.207   1.225   1.232   1.240
125 A'  126 A'  127 A'  128 A'   40 A"  129 A'  130 A'   41 A"                 
  1.246   1.269   1.298   1.304   1.311   1.348   1.368   1.399
131 A'  132 A'  133 A'   42 A"  134 A'  135 A'   43 A"  136 A'                 
  1.407   1.414   1.446   1.450   1.485   1.518   1.538   1.577
 44 A"   45 A"  137 A'   46 A"   47 A"  138 A'  139 A'   48 A"                 
  1.637   1.648   1.655   1.744   1.765   1.781   1.832   1.878
140 A'   49 A"  141 A'  142 A'  143 A'  144 A'  145 A'  146 A'                 
  1.888   1.939   1.949   1.973   2.002   2.017   2.019   2.053
 50 A"  147 A'   51 A"  148 A'  149 A'   52 A"  150 A'  151 A'                 
  2.082   2.084   2.119   2.137   2.150   2.195   2.225   2.231
152 A'   53 A"  153 A'   54 A"  154 A'  155 A'   55 A"  156 A'                 
  2.299   2.332   2.453   2.475   2.487   2.489   2.515   2.564
157 A'  158 A'  159 A'  160 A'  161 A'   56 A"  162 A'   57 A"                 
  2.598   2.608   2.619   2.656   2.726   2.743   2.801   2.863
 58 A"  163 A'  164 A'   59 A"  165 A'   60 A"   61 A"   62 A"                 
  2.883   2.897   2.905   2.940   2.977   2.985   2.998   3.014
166 A'  167 A'   63 A"  168 A'  169 A'  170 A'   64 A"  171 A'                 
  3.073   3.115   3.119   3.146   3.179   3.205   3.212   3.225
172 A'   65 A"  173 A'  174 A'  175 A'  176 A'  177 A'   66 A"                 
  3.244   3.271   3.279   3.283   3.293   3.315   3.370   3.388
178 A'   67 A"   68 A"  179 A'   69 A"  180 A'  181 A'  182 A'                 
  3.396   3.466   3.509   3.692   3.734   3.808   3.896   3.918
 70 A"  183 A'  184 A'  185 A'  186 A'  187 A'  188 A'  189 A'                 
  3.965   4.022   4.078   4.107   4.144   4.187   4.286   4.340
190 A'  191 A'  192 A'  193 A'  194 A'  195 A'  196 A'   71 A"                 
  4.362   4.423   4.439   4.461   4.535   4.803   4.906   5.027
 72 A"   73 A"   74 A"   75 A"  197 A'  198 A'  199 A'  200 A'                 
  5.038   5.248   5.296   5.433   5.520   5.579   5.687   5.763
201 A'  202 A'  203 A'  204 A'  205 A'  206 A'  207 A'  208 A'                 
  5.790   5.847   5.876   6.056   7.638   7.721   7.823   7.900
209 A'  210 A'  211 A'  212 A'  213 A'  214 A'  215 A'  216 A'                 
  7.932  20.698  20.758  20.812  20.901  20.985  30.175  30.217
217 A'  218 A'  219 A'  220 A'  221 A'  222 A'  223 A'  224 A'                 
 30.277  30.385  30.399  80.257  80.301  80.346  80.413  80.495
225 A'  226 A'  227 A'  228 A'  229 A'  230 A'  231 A'  232 A'                 
116.307 116.343 116.393 116.479 116.491 322.085 322.118 322.157
233 A'  234 A'  235 A'  236 A'  237 A'  238 A'  239 A'  240 A'                 
322.211 322.289 460.415 460.450 460.495 460.564 460.5751431.642
241 A'  242 A'  243 A'  244 A'  245 A'  246 A'  247 A'  248 A'                 
*******1431.7021431.7471431.8192012.8952012.9302012.9732013.028
249 A'  250 A'  251 A'  252 A'  253 A'  254 A'  255 A'  256 A'                 
*******8749.8668749.8828749.9148749.9528750.017****************
257 A'  258 A'  259 A'  260 A'  261 A'  262 A'  263 A'  264 A'                 
***********************
265 A'  266 A'  267 A'                                                         

 Beta MOs, Restricted
 -- Occupied --                  
-15.634 -15.587 -15.572 -15.559 -15.552 -11.343 -11.328 -11.322
  1 A'    2 A'    3 A'    4 A'    5 A'    6 A'    7 A'    8 A'                 
-11.313 -11.257  -1.374  -1.307  -1.253  -1.192  -1.157  -1.040
  9 A'   10 A'   11 A'   12 A'   13 A'   14 A'   15 A'   16 A'                 
 -0.901  -0.882  -0.849  -0.785  -0.745  -0.703  -0.683  -0.641
 17 A'   18 A'   19 A'   20 A'   21 A'   22 A'   23 A'    1 A"                 
 -0.639  -0.619  -0.597  -0.561  -0.500  -0.497  -0.452  -0.426
 24 A'   25 A'   26 A'    2 A"    3 A"   27 A'   28 A'    4 A"                 
 -0.411  -0.375  -0.312
 29 A'    5 A"    6 A"                                                         
 -- Virtual --                   
  0.010   0.016   0.021   0.024   0.028   0.029   0.033   0.036
 30 A'   31 A'   32 A'    7 A"   33 A'   34 A'    8 A"    9 A"                 
  0.037   0.041   0.042   0.049   0.052   0.052   0.055   0.057
 35 A'   36 A'   37 A'   38 A'   10 A"   39 A'   40 A'   11 A"                 
  0.059   0.061   0.065   0.071   0.080   0.081   0.082   0.082
 41 A'   42 A'   43 A'   44 A'   45 A'   12 A"   13 A"   46 A'                 
  0.091   0.091   0.092   0.099   0.100   0.102   0.103   0.104
 14 A"   47 A'   48 A'   49 A'   15 A"   50 A'   16 A"   51 A'                 
  0.107   0.112   0.116   0.118   0.123   0.131   0.138   0.141
 52 A'   53 A'   17 A"   54 A'   55 A'   56 A'   57 A'   18 A"                 
  0.149   0.150   0.159   0.164   0.180   0.199   0.203   0.210
 58 A'   59 A'   60 A'   19 A"   61 A'   62 A'   63 A'   20 A"                 
  0.212   0.215   0.222   0.226   0.226   0.231   0.233   0.234
 64 A'   65 A'   21 A"   66 A'   22 A"   67 A'   23 A"   68 A'                 
  0.238   0.242   0.248   0.262   0.268   0.284   0.287   0.293
 69 A'   24 A"   70 A'   71 A'   72 A'   73 A'   74 A'   25 A"                 
  0.303   0.309   0.323   0.333   0.335   0.339   0.339   0.346
 26 A"   75 A'   76 A'   77 A'   27 A"   78 A'   28 A"   79 A'                 
  0.351   0.363   0.368   0.371   0.384   0.390   0.401   0.414
 80 A'   81 A'   29 A"   82 A'   83 A'   84 A'   85 A'   86 A'                 
  0.416   0.420   0.429   0.439   0.456   0.460   0.472   0.474
 30 A"   87 A'   88 A'   89 A'   90 A'   91 A'   92 A'   93 A'                 
  0.477   0.494   0.504   0.517   0.536   0.550   0.575   0.587
 94 A'   95 A'   96 A'   97 A'   98 A'   99 A'  100 A'  101 A'                 
  0.614   0.646   0.664   0.692   0.724   0.769   0.773   0.775
102 A'  103 A'  104 A'  105 A'  106 A'  107 A'  108 A'   31 A"                 
  0.787   0.805   0.813   0.821   0.834   0.870   0.888   0.914
 32 A"  109 A'   33 A"   34 A"  110 A'   35 A"  111 A'  112 A'                 
  0.935   0.959   0.984   0.999   1.029   1.037   1.051   1.063
113 A'  114 A'  115 A'  116 A'  117 A'  118 A'  119 A'   36 A"                 
  1.078   1.085   1.096   1.113   1.118   1.127   1.136   1.140
 37 A"  120 A'  121 A'  122 A'  123 A'  124 A'   38 A"   39 A"                 
  1.142   1.152   1.172   1.184   1.207   1.225   1.232   1.240
125 A'  126 A'  127 A'  128 A'   40 A"  129 A'  130 A'   41 A"                 
  1.246   1.269   1.298   1.304   1.311   1.348   1.368   1.399
131 A'  132 A'  133 A'   42 A"  134 A'  135 A'   43 A"  136 A'                 
  1.407   1.414   1.446   1.450   1.485   1.518   1.538   1.577
 44 A"   45 A"  137 A'   46 A"   47 A"  138 A'  139 A'   48 A"                 
  1.637   1.648   1.655   1.744   1.765   1.781   1.832   1.878
140 A'   49 A"  141 A'  142 A'  143 A'  144 A'  145 A'  146 A'                 
  1.888   1.939   1.949   1.973   2.002   2.017   2.019   2.053
 50 A"  147 A'   51 A"  148 A'  149 A'   52 A"  150 A'  151 A'                 
  2.082   2.084   2.119   2.137   2.150   2.195   2.225   2.231
152 A'   53 A"  153 A'   54 A"  154 A'  155 A'   55 A"  156 A'                 
  2.299   2.332   2.453   2.475   2.487   2.489   2.515   2.564
157 A'  158 A'  159 A'  160 A'  161 A'   56 A"  162 A'   57 A"                 
  2.598   2.608   2.619   2.656   2.726   2.743   2.801   2.863
 58 A"  163 A'  164 A'   59 A"  165 A'   60 A"   61 A"   62 A"                 
  2.883   2.897   2.905   2.940   2.977   2.985   2.998   3.014
166 A'  167 A'   63 A"  168 A'  169 A'  170 A'   64 A"  171 A'                 
  3.073   3.115   3.119   3.146   3.179   3.205   3.212   3.225
172 A'   65 A"  173 A'  174 A'  175 A'  176 A'  177 A'   66 A"                 
  3.244   3.271   3.279   3.283   3.293   3.315   3.370   3.388
178 A'   67 A"   68 A"  179 A'   69 A"  180 A'  181 A'  182 A'                 
  3.396   3.466   3.509   3.692   3.734   3.808   3.896   3.918
 70 A"  183 A'  184 A'  185 A'  186 A'  187 A'  188 A'  189 A'                 
  3.965   4.022   4.078   4.107   4.144   4.187   4.286   4.340
190 A'  191 A'  192 A'  193 A'  194 A'  195 A'  196 A'   71 A"                 
  4.362   4.423   4.439   4.461   4.535   4.803   4.906   5.027
 72 A"   73 A"   74 A"   75 A"  197 A'  198 A'  199 A'  200 A'                 
  5.038   5.248   5.296   5.433   5.520   5.579   5.687   5.763
201 A'  202 A'  203 A'  204 A'  205 A'  206 A'  207 A'  208 A'                 
  5.790   5.847   5.876   6.056   7.638   7.721   7.823   7.900
209 A'  210 A'  211 A'  212 A'  213 A'  214 A'  215 A'  216 A'                 
  7.932  20.698  20.758  20.812  20.901  20.985  30.175  30.217
217 A'  218 A'  219 A'  220 A'  221 A'  222 A'  223 A'  224 A'                 
 30.277  30.385  30.399  80.257  80.301  80.346  80.413  80.495
225 A'  226 A'  227 A'  228 A'  229 A'  230 A'  231 A'  232 A'                 
116.307 116.343 116.393 116.479 116.491 322.085 322.118 322.157
233 A'  234 A'  235 A'  236 A'  237 A'  238 A'  239 A'  240 A'                 
322.211 322.289 460.415 460.450 460.495 460.564 460.5751431.642
241 A'  242 A'  243 A'  244 A'  245 A'  246 A'  247 A'  248 A'                 
*******1431.7021431.7471431.8192012.8952012.9302012.9732013.028
249 A'  250 A'  251 A'  252 A'  253 A'  254 A'  255 A'  256 A'                 
*******8749.8668749.8828749.9148749.9528750.017****************
257 A'  258 A'  259 A'  260 A'  261 A'  262 A'  263 A'  264 A'                 
***********************
265 A'  266 A'  267 A'                                                         
 --------------------------------------------------------------

          Ground-State Mulliken Net Atomic Charges

     Atom                 Charge (a.u.)
  ----------------------------------------
      1 N                    -0.144020
      2 N                    -0.137716
      3 N                    -0.163633
      4 N                    -0.215016
      5 N                    -0.279697
      6 C                    -0.055528
      7 C                    -0.363122
      8 C                    -0.245226
      9 C                    -0.065683
     10 C                     0.119647
     11 H                     0.335934
     12 H                     0.284379
     13 H                     0.301070
     14 H                     0.274156
     15 H                     0.354453
  ----------------------------------------
  Sum of atomic charges =     0.000000

 -----------------------------------------------------------------
                    Cartesian Multipole Moments
 -----------------------------------------------------------------
    Charge (ESU x 10^10)
                 0.0000
    Dipole Moment (Debye)
         X      -2.3023      Y      -1.0498      Z      -0.0000
       Tot       2.5304
    Quadrupole Moments (Debye-Ang)
        XX     -43.7855     XY      -6.4408     YY     -57.8822
        XZ       0.0000     YZ      -0.0000     ZZ     -60.5570
    Octopole Moments (Debye-Ang^2)
       XXX     -45.0046    XXY      -5.7416    XYY      20.2674
       YYY     -17.0607    XXZ      -0.0000    XYZ      -0.0000
       YYZ      -0.0000    XZZ      -0.6240    YZZ       0.9579
       ZZZ      -0.0000
    Hexadecapole Moments (Debye-Ang^3)
      XXXX    -711.9934   XXXY     -62.6422   XXYY    -183.7323
      XYYY     -31.6371   YYYY    -604.0225   XXXZ       0.0000
      XXYZ      -0.0000   XYYZ       0.0000   YYYZ      -0.0000
      XXZZ    -171.3028   XYZZ      -1.1822   YYZZ    -122.5957
      XZZZ       0.0000   YZZZ      -0.0000   ZZZZ     -64.5134
 -----------------------------------------------------------------
Archival summary:
1\1\n-62-29-36\SP\ProcedureUnspecified\BasisUnspecified\555\malop\MonJun322:32:562019MonJun322:32:562019\0\\#,ProcedureUnspecified,BasisUnspecified,\\0,1\C\N,1,1.38182\C,2,1.30551,1,104.18\H,3,1.07746,2,125.183,1,180,0\N,3,1.37601,2,113.269,1,0,0\H,5,1.0053,3,127.367,2,180,0\C,5,1.37427,3,106.743,2,-0,0\N,7,1.33366,5,128.73,3,-180,0\C,8,1.33073,7,111.405,5,-180,0\H,9,1.08341,8,116.059,7,180,0\N,9,1.33855,8,128.571,7,0,0\C,11,1.33926,9,118.701,8,-0,0\N,12,1.34913,11,119.071,9,-180,0\H,13,1.00259,12,120.298,11,180,0\H,13,1.0031,12,119.173,11,-0,0\\HF=-464.637232\\@

 Total job time:  38945.02s(wall), 36787.21s(cpu) 
 Mon Jun  3 22:32:56 2019

======= MOLDEN-FORMATTED INPUT FILE FOLLOWS =======
[Molden Format]
[Atoms] (Angs)
  N      1    7      1.94018933      0.52508494      0.00000000
  N      2    7     -0.02213269      1.91541175      0.00000000
  N      3    7     -1.17840874     -1.47034963     -0.00000000
  N      4    7     -2.06912523      0.58482266      0.00000000
  N      5    7      1.87296022     -1.79117643     -0.00000000
  C      6    6      1.29026180      1.69525713      0.00000000
  C      7    6     -0.70757697      0.77138093      0.00000000
  C      8    6     -0.17789318     -0.51725539     -0.00000000
  C      9    6      1.22552274     -0.60755281     -0.00000000
  C     10    6     -2.28299045     -0.77446763     -0.00000000
  H     11    1     -2.76356369      1.31172362      0.00000000
  H     12    1     -3.27766143     -1.18864608     -0.00000000
  H     13    1      1.92065024      2.57638112      0.00000000
  H     14    1      1.35622854     -2.65035184     -0.00000000
  H     15    1      2.87602238     -1.79983315     -0.00000000

======= END OF MOLDEN-FORMATTED INPUT FILE =======


        *************************************************************
        *                                                           *
        *  Thank you very much for using Q-Chem.  Have a nice day.  *
        *                                                           *
        *************************************************************


