                  Welcome to Q-Chem
     A Quantum Leap Into The Future Of Chemistry


 Q-Chem 5.2 (devel), Q-Chem, Inc., Pleasanton, CA (2019)

 Yihan Shao,  Zhengting Gan,  E. Epifanovsky,  A. T. B. Gilbert,  M. Wormit,  
 J. Kussmann,  A. W. Lange,  A. Behn,  Jia Deng,  Xintian Feng,  D. Ghosh,  
 M. Goldey,  P. R. Horn,  L. D. Jacobson,  I. Kaliman,  T. Kus,  A. Landau,  
 Jie Liu,  E. I. Proynov,  R. M. Richard,  R. P. Steele,  E. J. Sundstrom,  
 H. L. Woodcock III,  P. M. Zimmerman,  D. Zuev,  B. Albrecht,  E. Alguire,  
 S. A. Baeppler,  D. Barton,  Z. Benda,  Y. A. Bernard,  E. J. Berquist,  
 K. B. Bravaya,  H. Burton,  D. Casanova,  Chun-Min Chang,  Yunqing Chen,  
 A. Chien,  K. D. Closser,  M. P. Coons,  S. Coriani,  S. Dasgupta,  
 A. L. Dempwolff,  M. Diedenhofen,  Hainam Do,  R. G. Edgar,  Po-Tung Fang,  
 S. Faraji,  S. Fatehi,  Qingguo Feng,  K. D. Fenk,  J. Fosso-Tande,  
 J. Gayvert,  Qinghui Ge,  A. Ghysels,  G. Gidofalvi,  J. Gomes,  
 J. Gonthier,  A. Gunina,  D. Hait,  M. W. D. Hanson-Heine,  
 P. H. P. Harbach,  A. W. Hauser,  M. F. Herbst,  J. E. Herr,  
 E. G. Hohenstein,  Z. C. Holden,  Kerwin Hui,  B. C. Huynh,  T.-C. Jagau,  
 Hyunjun Ji,  B. Kaduk,  K. Khistyaev,  Jaehoon Kim,  P. Klunzinger,  K. Koh,  
 D. Kosenkov,  L. Koulias,  T. Kowalczyk,  C. M. Krauter,  A. Kunitsa,  
 Ka Un Lao,  A. Laurent,  K. V. Lawler,  Joonho Lee,  D. Lefrancois,  
 S. Lehtola,  D. S. Levine,  Yi-Pei Li,  You-Sheng Lin,  Fenglai Liu,  
 E. Livshits,  A. Luenser,  P. Manohar,  E. Mansoor,  S. F. Manzer,  
 Shan-Ping Mao,  Yuezhi Mao,  N. Mardirossian,  A. V. Marenich,  
 T. Markovich,  L. A. Martinez-Martinez,  S. A. Maurer,  N. J. Mayhall,  
 S. C. McKenzie,  J.-M. Mewes,  P. Morgante,  A. F. Morrison,  
 J. W. Mullinax,  K. Nanda,  T. S. Nguyen-Beck,  R. Olivares-Amaya,  
 J. A. Parkhill,  Zheng Pei,  T. M. Perrine,  F. Plasser,  P. Pokhilko,  
 S. Prager,  A. Prociuk,  E. Ramos,  D. R. Rehn,  F. Rob,  M. Scheurer,  
 M. Schneider,  N. Sergueev,  S. M. Sharada,  S. Sharma,  D. W. Small,  
 T. Stauch,  T. Stein,  Yu-Chuan Su,  A. J. W. Thom,  A. Tkatchenko,  
 T. Tsuchimochi,  N. M. Tubman,  L. Vogt,  M. L. Vidal,  O. Vydrov,  
 M. A. Watson,  J. Wenzel,  M. de Wergifosse,  T. A. Wesolowski,  A. White,  
 J. Witte,  A. Yamada,  Jun Yang,  K. Yao,  S. Yeganeh,  S. R. Yost,  
 Zhi-Qiang You,  A. Zech,  Igor Ying Zhang,  Xing Zhang,  Yan Zhao,  
 Ying Zhu,  B. R. Brooks,  G. K. L. Chan,  C. J. Cramer,  M. S. Gordon,  
 W. J. Hehre,  A. Klamt,  M. W. Schmidt,  C. D. Sherrill,  D. G. Truhlar,  
 A. Aspuru-Guzik,  R. Baer,  A. T. Bell,  N. A. Besley,  Jeng-Da Chai,  
 A. E. DePrince, III,  R. A. DiStasio Jr.,  A. Dreuw,  B. D. Dunietz,  
 T. R. Furlani,  Chao-Ping Hsu,  Yousung Jung,  Jing Kong,  D. S. Lambrecht,  
 WanZhen Liang,  C. Ochsenfeld,  V. A. Rassolov,  L. V. Slipchenko,  
 J. E. Subotnik,  T. Van Voorhis,  J. M. Herbert,  A. I. Krylov,  
 P. M. W. Gill,  M. Head-Gordon

 Contributors to earlier versions of Q-Chem not listed above: 
 R. D. Adamson,  B. Austin,  J. Baker,  G. J. O. Beran,  K. Brandhorst,  
 S. T. Brown,  E. F. C. Byrd,  A. K. Chakraborty,  C.-L. Cheng,  
 Siu Hung Chien,  D. M. Chipman,  D. L. Crittenden,  H. Dachsel,  
 R. J. Doerksen,  A. D. Dutoi,  L. Fusti-Molnar,  W. A. Goddard III,  
 A. Golubeva-Zadorozhnaya,  S. R. Gwaltney,  G. Hawkins,  A. Heyden,  
 S. Hirata,  G. Kedziora,  F. J. Keil,  C. Kelley,  Jihan Kim,  R. A. King,  
 R. Z. Khaliullin,  P. P. Korambath,  W. Kurlancheek,  A. M. Lee,  M. S. Lee,  
 S. V. Levchenko,  Ching Yeh Lin,  D. Liotard,  R. C. Lochan,  I. Lotan,  
 P. E. Maslen,  N. Nair,  D. P. O'Neill,  D. Neuhauser,  E. Neuscamman,  
 C. M. Oana,  R. Olson,  B. Peters,  R. Peverati,  P. A. Pieniazek,  
 Y. M. Rhee,  J. Ritchie,  M. A. Rohrdanz,  E. Rosta,  N. J. Russ,  
 H. F. Schaefer III,  N. E. Schultz,  N. Shenvi,  A. C. Simmonett,  A. Sodt,  
 D. Stuck,  K. S. Thanthiriwatte,  V. Vanovschi,  Tao Wang,  A. Warshel,  
 C. F. Williams,  Q. Wu,  X. Xu,  W. Zhang

 Please cite Q-Chem as follows:
 Y. Shao et al., Mol. Phys. 113, 184-215 (2015)
 DOI: 10.1080/00268976.2014.952696

 Q-Chem 5.2.0 for Intel X86 EM64T Linux

 Parts of Q-Chem use Armadillo 8.300.2 (Tropical Shenanigans).
 http://arma.sourceforge.net/

 Q-Chem begins on Wed May  8 09:06:19 2019  

n-62-29-10
Host: 0

     Scratch files written to /work1/malop/qchem27469//
NAlpha2: 70
NElect   70
Mult     1

Checking the input file for inconsistencies... 	...done.

--------------------------------------------------------------
User input:
--------------------------------------------------------------
$comment 
NEXAFS Adenine/ 6-311(2+,+)G** (ucC)
optimization: MP2/cc-pVTZ
$end

$molecule
0 1
N      1.663948   -1.127531    0.000000
N     -0.643862   -1.804088    0.000000
N     -0.636159    1.773662    0.000000
N     -2.146840    0.119893    0.000000
N      2.353671    1.084678    0.000000
C      0.668787   -2.022720    0.000000
C     -0.919981   -0.499328    0.000000
C      0.000000    0.546991    0.000000
C      1.356490    0.175959    0.000000
C     -1.907009    1.474843    0.000000
H     -3.039931   -0.341646    0.000000
H     -2.712908    2.189994    0.000000
H      0.978346   -3.060960    0.000000
H      2.144452    2.065199    0.000000
H      3.305020    0.766647    0.000000
$end

$rem
    print_general_basis = true
    jobtype = sp
    method = eom-ccsd
    cvs_ip_states    [5,0]
    basis = general
    n_frozen_core = fc 
    cc_trans_prop = true
    cc_do_dyson = true
    print_general_basis = true
    cc_memory = 100000
    molden_format = true
   !eom_davidson_convergence = 4   !as we discussed, this is good for core
$end

$basis
H    0
6-311(2+,+)G**
****
O    0
6-311(2+,+)G**
****
N    0
6-311(2+,+)G**
****
C    0
S    1    1.000000
   4.56324000E+03    1.96665000E-03
S    1    1.000000
   6.82024000E+02    1.52306000E-02
S    1    1.000000
   1.54973000E+02    7.61269000E-02
S    1    1.000000
   4.44553000E+01    2.60801000E-01
S    1    1.000000
   1.30290000E+01    6.16462000E-01
S    1    1.000000
   1.82773000E+00    2.21006000E-01
SP   3    1.000000
   2.09642000E+01    1.14660000E-01   4.02487000E-02
   4.80331000E+00    9.19999000E-01   2.37594000E-01
   1.45933000E+00   -3.03068000E-03   8.15854000E-01
SP   1    1.000000
   4.83456000E-01    1.00000000E+00   1.00000000E+00
SP   1    1.000000
   1.45585000E-01    1.00000000E+00   1.00000000E+00
SP   1    1.000000
   4.38000000E-02    1.00000000E+00   1.00000000E+00
SP   1    1.000000
   1.31927711E-02    1.00000000E+00   1.00000000E+00
D    1    1.000000
   6.26000000E-01    1.00000000E+00
****
$end

--------------------------------------------------------------
 ----------------------------------------------------------------
             Standard Nuclear Orientation (Angstroms)
    I     Atom           X                Y                Z
 ----------------------------------------------------------------
    1      N       1.9401893320     0.5250849361     0.0000000000
    2      N      -0.0221326925     1.9154117475     0.0000000000
    3      N      -1.1784087390    -1.4703496296    -0.0000000000
    4      N      -2.0691252255     0.5848226575     0.0000000000
    5      N       1.8729602234    -1.7911764315    -0.0000000000
    6      C       1.2902617955     1.6952571282     0.0000000000
    7      C      -0.7075769660     0.7713809316     0.0000000000
    8      C      -0.1778931772    -0.5172553918    -0.0000000000
    9      C       1.2255227416    -0.6075528111    -0.0000000000
   10      C      -2.2829904496    -0.7744676268    -0.0000000000
   11      H      -2.7635636871     1.3117236177     0.0000000000
   12      H      -3.2776614287    -1.1886460838    -0.0000000000
   13      H       1.9206502371     2.5763811176     0.0000000000
   14      H       1.3562285392    -2.6503518432    -0.0000000000
   15      H       2.8760223840    -1.7998331492    -0.0000000000
 ----------------------------------------------------------------
 Molecular Point Group                 Cs    NOp =  2
 Largest Abelian Subgroup              Cs    NOp =  2
 Nuclear Repulsion Energy =         503.72965651 hartrees
 There are       35 alpha and       35 beta electrons
 Requested basis set is non-standard
Basis set in general basis input format:
-----------------------------------------------------------------------
$basis
N    0
S    6    1.000000
   6.29348000E+03    1.96979000E-03 
   9.49044000E+02    1.49613000E-02 
   2.18776000E+02    7.35006000E-02 
   6.36916000E+01    2.48937000E-01 
   1.88282000E+01    6.02460000E-01 
   2.72023000E+00    2.56202000E-01 
SP   3    1.000000
   3.06331000E+01    1.11906000E-01   3.83119000E-02 
   7.02614000E+00    9.21666000E-01   2.37403000E-01 
   2.11205000E+00   -2.56919000E-03   8.17592000E-01 
SP   1    1.000000
   6.84009000E-01    1.00000000E+00   1.00000000E+00 
SP   1    1.000000
   2.00878000E-01    1.00000000E+00   1.00000000E+00 
SP   1    1.000000
   6.39000000E-02    1.00000000E+00   1.00000000E+00 
SP   1    1.000000
   1.92469880E-02    1.00000000E+00   1.00000000E+00 
D    1    1.000000
   9.13000000E-01    1.00000000E+00 
****
N    0
S    6    1.000000
   6.29348000E+03    1.96979000E-03 
   9.49044000E+02    1.49613000E-02 
   2.18776000E+02    7.35006000E-02 
   6.36916000E+01    2.48937000E-01 
   1.88282000E+01    6.02460000E-01 
   2.72023000E+00    2.56202000E-01 
SP   3    1.000000
   3.06331000E+01    1.11906000E-01   3.83119000E-02 
   7.02614000E+00    9.21666000E-01   2.37403000E-01 
   2.11205000E+00   -2.56919000E-03   8.17592000E-01 
SP   1    1.000000
   6.84009000E-01    1.00000000E+00   1.00000000E+00 
SP   1    1.000000
   2.00878000E-01    1.00000000E+00   1.00000000E+00 
SP   1    1.000000
   6.39000000E-02    1.00000000E+00   1.00000000E+00 
SP   1    1.000000
   1.92469880E-02    1.00000000E+00   1.00000000E+00 
D    1    1.000000
   9.13000000E-01    1.00000000E+00 
****
N    0
S    6    1.000000
   6.29348000E+03    1.96979000E-03 
   9.49044000E+02    1.49613000E-02 
   2.18776000E+02    7.35006000E-02 
   6.36916000E+01    2.48937000E-01 
   1.88282000E+01    6.02460000E-01 
   2.72023000E+00    2.56202000E-01 
SP   3    1.000000
   3.06331000E+01    1.11906000E-01   3.83119000E-02 
   7.02614000E+00    9.21666000E-01   2.37403000E-01 
   2.11205000E+00   -2.56919000E-03   8.17592000E-01 
SP   1    1.000000
   6.84009000E-01    1.00000000E+00   1.00000000E+00 
SP   1    1.000000
   2.00878000E-01    1.00000000E+00   1.00000000E+00 
SP   1    1.000000
   6.39000000E-02    1.00000000E+00   1.00000000E+00 
SP   1    1.000000
   1.92469880E-02    1.00000000E+00   1.00000000E+00 
D    1    1.000000
   9.13000000E-01    1.00000000E+00 
****
N    0
S    6    1.000000
   6.29348000E+03    1.96979000E-03 
   9.49044000E+02    1.49613000E-02 
   2.18776000E+02    7.35006000E-02 
   6.36916000E+01    2.48937000E-01 
   1.88282000E+01    6.02460000E-01 
   2.72023000E+00    2.56202000E-01 
SP   3    1.000000
   3.06331000E+01    1.11906000E-01   3.83119000E-02 
   7.02614000E+00    9.21666000E-01   2.37403000E-01 
   2.11205000E+00   -2.56919000E-03   8.17592000E-01 
SP   1    1.000000
   6.84009000E-01    1.00000000E+00   1.00000000E+00 
SP   1    1.000000
   2.00878000E-01    1.00000000E+00   1.00000000E+00 
SP   1    1.000000
   6.39000000E-02    1.00000000E+00   1.00000000E+00 
SP   1    1.000000
   1.92469880E-02    1.00000000E+00   1.00000000E+00 
D    1    1.000000
   9.13000000E-01    1.00000000E+00 
****
N    0
S    6    1.000000
   6.29348000E+03    1.96979000E-03 
   9.49044000E+02    1.49613000E-02 
   2.18776000E+02    7.35006000E-02 
   6.36916000E+01    2.48937000E-01 
   1.88282000E+01    6.02460000E-01 
   2.72023000E+00    2.56202000E-01 
SP   3    1.000000
   3.06331000E+01    1.11906000E-01   3.83119000E-02 
   7.02614000E+00    9.21666000E-01   2.37403000E-01 
   2.11205000E+00   -2.56919000E-03   8.17592000E-01 
SP   1    1.000000
   6.84009000E-01    1.00000000E+00   1.00000000E+00 
SP   1    1.000000
   2.00878000E-01    1.00000000E+00   1.00000000E+00 
SP   1    1.000000
   6.39000000E-02    1.00000000E+00   1.00000000E+00 
SP   1    1.000000
   1.92469880E-02    1.00000000E+00   1.00000000E+00 
D    1    1.000000
   9.13000000E-01    1.00000000E+00 
****
C    0
S    1    1.000000
   4.56324000E+03    1.96665000E-03 
S    1    1.000000
   6.82024000E+02    1.52306000E-02 
S    1    1.000000
   1.54973000E+02    7.61269000E-02 
S    1    1.000000
   4.44553000E+01    2.60801000E-01 
S    1    1.000000
   1.30290000E+01    6.16462000E-01 
S    1    1.000000
   1.82773000E+00    2.21006000E-01 
SP   3    1.000000
   2.09642000E+01    1.14660000E-01   4.02487000E-02 
   4.80331000E+00    9.19999000E-01   2.37594000E-01 
   1.45933000E+00   -3.03068000E-03   8.15854000E-01 
SP   1    1.000000
   4.83456000E-01    1.00000000E+00   1.00000000E+00 
SP   1    1.000000
   1.45585000E-01    1.00000000E+00   1.00000000E+00 
SP   1    1.000000
   4.38000000E-02    1.00000000E+00   1.00000000E+00 
SP   1    1.000000
   1.31927711E-02    1.00000000E+00   1.00000000E+00 
D    1    1.000000
   6.26000000E-01    1.00000000E+00 
****
C    0
S    1    1.000000
   4.56324000E+03    1.96665000E-03 
S    1    1.000000
   6.82024000E+02    1.52306000E-02 
S    1    1.000000
   1.54973000E+02    7.61269000E-02 
S    1    1.000000
   4.44553000E+01    2.60801000E-01 
S    1    1.000000
   1.30290000E+01    6.16462000E-01 
S    1    1.000000
   1.82773000E+00    2.21006000E-01 
SP   3    1.000000
   2.09642000E+01    1.14660000E-01   4.02487000E-02 
   4.80331000E+00    9.19999000E-01   2.37594000E-01 
   1.45933000E+00   -3.03068000E-03   8.15854000E-01 
SP   1    1.000000
   4.83456000E-01    1.00000000E+00   1.00000000E+00 
SP   1    1.000000
   1.45585000E-01    1.00000000E+00   1.00000000E+00 
SP   1    1.000000
   4.38000000E-02    1.00000000E+00   1.00000000E+00 
SP   1    1.000000
   1.31927711E-02    1.00000000E+00   1.00000000E+00 
D    1    1.000000
   6.26000000E-01    1.00000000E+00 
****
C    0
S    1    1.000000
   4.56324000E+03    1.96665000E-03 
S    1    1.000000
   6.82024000E+02    1.52306000E-02 
S    1    1.000000
   1.54973000E+02    7.61269000E-02 
S    1    1.000000
   4.44553000E+01    2.60801000E-01 
S    1    1.000000
   1.30290000E+01    6.16462000E-01 
S    1    1.000000
   1.82773000E+00    2.21006000E-01 
SP   3    1.000000
   2.09642000E+01    1.14660000E-01   4.02487000E-02 
   4.80331000E+00    9.19999000E-01   2.37594000E-01 
   1.45933000E+00   -3.03068000E-03   8.15854000E-01 
SP   1    1.000000
   4.83456000E-01    1.00000000E+00   1.00000000E+00 
SP   1    1.000000
   1.45585000E-01    1.00000000E+00   1.00000000E+00 
SP   1    1.000000
   4.38000000E-02    1.00000000E+00   1.00000000E+00 
SP   1    1.000000
   1.31927711E-02    1.00000000E+00   1.00000000E+00 
D    1    1.000000
   6.26000000E-01    1.00000000E+00 
****
C    0
S    1    1.000000
   4.56324000E+03    1.96665000E-03 
S    1    1.000000
   6.82024000E+02    1.52306000E-02 
S    1    1.000000
   1.54973000E+02    7.61269000E-02 
S    1    1.000000
   4.44553000E+01    2.60801000E-01 
S    1    1.000000
   1.30290000E+01    6.16462000E-01 
S    1    1.000000
   1.82773000E+00    2.21006000E-01 
SP   3    1.000000
   2.09642000E+01    1.14660000E-01   4.02487000E-02 
   4.80331000E+00    9.19999000E-01   2.37594000E-01 
   1.45933000E+00   -3.03068000E-03   8.15854000E-01 
SP   1    1.000000
   4.83456000E-01    1.00000000E+00   1.00000000E+00 
SP   1    1.000000
   1.45585000E-01    1.00000000E+00   1.00000000E+00 
SP   1    1.000000
   4.38000000E-02    1.00000000E+00   1.00000000E+00 
SP   1    1.000000
   1.31927711E-02    1.00000000E+00   1.00000000E+00 
D    1    1.000000
   6.26000000E-01    1.00000000E+00 
****
C    0
S    1    1.000000
   4.56324000E+03    1.96665000E-03 
S    1    1.000000
   6.82024000E+02    1.52306000E-02 
S    1    1.000000
   1.54973000E+02    7.61269000E-02 
S    1    1.000000
   4.44553000E+01    2.60801000E-01 
S    1    1.000000
   1.30290000E+01    6.16462000E-01 
S    1    1.000000
   1.82773000E+00    2.21006000E-01 
SP   3    1.000000
   2.09642000E+01    1.14660000E-01   4.02487000E-02 
   4.80331000E+00    9.19999000E-01   2.37594000E-01 
   1.45933000E+00   -3.03068000E-03   8.15854000E-01 
SP   1    1.000000
   4.83456000E-01    1.00000000E+00   1.00000000E+00 
SP   1    1.000000
   1.45585000E-01    1.00000000E+00   1.00000000E+00 
SP   1    1.000000
   4.38000000E-02    1.00000000E+00   1.00000000E+00 
SP   1    1.000000
   1.31927711E-02    1.00000000E+00   1.00000000E+00 
D    1    1.000000
   6.26000000E-01    1.00000000E+00 
****
H    0
S    3    1.000000
   3.38650000E+01    2.54938000E-02 
   5.09479000E+00    1.90373000E-01 
   1.15879000E+00    8.52161000E-01 
S    1    1.000000
   3.25840000E-01    1.00000000E+00 
S    1    1.000000
   1.02741000E-01    1.00000000E+00 
S    1    1.000000
   3.60000000E-02    1.00000000E+00 
P    1    1.000000
   7.50000000E-01    1.00000000E+00 
****
H    0
S    3    1.000000
   3.38650000E+01    2.54938000E-02 
   5.09479000E+00    1.90373000E-01 
   1.15879000E+00    8.52161000E-01 
S    1    1.000000
   3.25840000E-01    1.00000000E+00 
S    1    1.000000
   1.02741000E-01    1.00000000E+00 
S    1    1.000000
   3.60000000E-02    1.00000000E+00 
P    1    1.000000
   7.50000000E-01    1.00000000E+00 
****
H    0
S    3    1.000000
   3.38650000E+01    2.54938000E-02 
   5.09479000E+00    1.90373000E-01 
   1.15879000E+00    8.52161000E-01 
S    1    1.000000
   3.25840000E-01    1.00000000E+00 
S    1    1.000000
   1.02741000E-01    1.00000000E+00 
S    1    1.000000
   3.60000000E-02    1.00000000E+00 
P    1    1.000000
   7.50000000E-01    1.00000000E+00 
****
H    0
S    3    1.000000
   3.38650000E+01    2.54938000E-02 
   5.09479000E+00    1.90373000E-01 
   1.15879000E+00    8.52161000E-01 
S    1    1.000000
   3.25840000E-01    1.00000000E+00 
S    1    1.000000
   1.02741000E-01    1.00000000E+00 
S    1    1.000000
   3.60000000E-02    1.00000000E+00 
P    1    1.000000
   7.50000000E-01    1.00000000E+00 
****
H    0
S    3    1.000000
   3.38650000E+01    2.54938000E-02 
   5.09479000E+00    1.90373000E-01 
   1.15879000E+00    8.52161000E-01 
S    1    1.000000
   3.25840000E-01    1.00000000E+00 
S    1    1.000000
   1.02741000E-01    1.00000000E+00 
S    1    1.000000
   3.60000000E-02    1.00000000E+00 
P    1    1.000000
   7.50000000E-01    1.00000000E+00 
****
$end
-----------------------------------------------------------------------
 There are 120 shells and 320 basis functions
 WARNING: the default MEM_TOTAL is adjusted according to given MEM_STATIC!
 Total memory of 100192 MB is distributed as follows: 
   MEM_STATIC is set to 192 MB
   QALLOC/CCMAN JOB total memory use is  100000 MB
 Warning: actual memory use might exceed 100192 MB

 Total QAlloc Memory Limit 100192 MB
 Mega-Array Size       188 MB
 MEM_STATIC part       192 MB

                       Distance Matrix (Angstroms)
             N (  1)   N (  2)   N (  3)   N (  4)   N (  5)   C (  6)
   N (  2)  2.404936
   N (  3)  3.702352  3.577758
   N (  4)  4.009760  2.441443  2.239890
   N (  5)  2.317237  4.162952  3.068189  4.602761
   C (  6)  1.338547  1.330732  4.014399  3.538156  3.534792
   C (  7)  2.659197  1.333657  2.290641  1.374270  3.636739  2.201115
   C (  8)  2.360667  2.437649  1.381818  2.188912  2.414306  2.655314
   C (  9)  1.339260  2.814604  2.554076  3.503779  1.349126  2.303720
   C ( 10)  4.418607  3.513820  1.305509  1.376012  4.278507  4.343693
   H ( 11)  4.769077  2.807113  3.201976  1.005301  5.579009  4.071928
   H ( 12)  5.492071  4.498182  2.118070  2.146101  5.185745  5.402113
   H ( 13)  2.051389  2.052142  5.097077  4.459217  4.367818  1.083406
   H ( 14)  3.228685  4.769285  2.795853  4.711624  1.002594  4.346110
   H ( 15)  2.506198  4.711937  4.067797  5.490088  1.003100  3.838006
             C (  7)   C (  8)   C (  9)   C ( 10)   H ( 11)   H ( 12)
   C (  8)  1.393251
   C (  9)  2.374517  1.406318
   C ( 10)  2.207165  2.120753  3.512481
   H ( 11)  2.125806  3.167153  4.426786  2.140828
   H ( 12)  3.232188  3.171644  4.540522  1.077457  2.552674
   H ( 13)  3.188354  3.738244  3.258932  5.375759  4.851929  6.418557
   H ( 14)  3.995941  2.627476  2.046976  4.094247  5.715832  4.858963
   H ( 15)  4.410592  3.312311  2.036095  5.259923  6.441018  6.183961
             H ( 13)   H ( 14)
   H ( 14)  5.257120
   H ( 15)  4.479284  1.741596

 A cutoff of  1.0D-14 yielded   6311 shell pairs
 There are     48827 function pairs (     51971 Cartesian)
 Smallest overlap matrix eigenvalue = 2.12E-08
 Linear dependence detected in AO basis
 Tighter screening thresholds may be required for diffuse basis sets
 Use S2THRESH > 14 and THRESH = 14 in case of SCF convergence issues
 Number of orthogonalized atomic orbitals = 317
 Maximum deviation from orthogonality = 3.875E-10

 Scale SEOQF with 1.000000e-01/1.000000e-01/1.000000e-01

 Standard Electronic Orientation quadrupole field applied
 Nucleus-field energy     =     0.0000000146 hartrees
 Guess MOs from core Hamiltonian diagonalization

 -----------------------------------------------------------------------
  General SCF calculation program by
  Eric Jon Sundstrom, Paul Horn, Yuezhi Mao, Dmitri Zuev, Alec White,
  David Stuck, Shaama M.S., Shane Yost, Joonho Lee, David Small,
  Daniel Levine, Susi Lehtola, Hugh Burton, Evgeny Epifanovsky
 -----------------------------------------------------------------------
 Hartree-Fock
 using 4 threads for integral computing
 -------------------------------------------------------
 OpenMP Integral computing Module                
 Release: version 2.0, May 2017, Q-Chem Inc. Pleasanton 
 -------------------------------------------------------
 A restricted SCF calculation will be
 performed using DIIS
 SCF converges when DIIS error is below 1.0e-08
 ---------------------------------------
  Cycle       Energy         DIIS error
 ---------------------------------------
    1    -352.4391333739      1.00e-01  
    2    -304.2648196254      6.37e-02  
    3    -392.0724461370      5.90e-02  
    4    -425.9964677702      4.74e-02  
    5    -447.8603525297      2.92e-02  
    6    -454.8323485478      2.33e-02  
    7    -463.6944338845      8.38e-03  
    8    -464.5583027286      2.59e-03  
    9    -464.6303844198      5.36e-04  
   10    -464.6353601732      2.37e-04  
   11    -464.6365152526      7.31e-05  
   12    -464.6367189126      2.80e-05  
   13    -464.6367521125      1.59e-05  
   14    -464.6367617142      7.03e-06  
   15    -464.6367646052      2.70e-06  
   16    -464.6367649770      1.06e-06  
   17    -464.6367650174      3.59e-07  
   18    -464.6367650208      1.51e-07  
   19    -464.6367650214      5.47e-08  
   20    -464.6367650215      1.70e-08  
   21    -464.6367650215      7.13e-09  Convergence criterion met
 ---------------------------------------
 SCF time:   CPU 327.40s  wall 88.00s 
 SCF   energy in the final basis set =     -464.6367650215
 Total energy in the final basis set =     -464.6367650215


 ------------------------------------------------------------------------------

   CCMAN2: suite of methods based on coupled cluster
           and equation of motion theories.

   Components:
   * libvmm-1.3-trunk
     by Evgeny Epifanovsky, Ilya Kaliman.
   * libtensor-2.5-trunk
     by Evgeny Epifanovsky, Michael Wormit, Dmitry Zuev, Sam Manzer, 
        Ilya Kaliman.
   * libcc-2.5-trunk
     by Evgeny Epifanovsky, Arik Landau, Tomasz Kus, Kirill Khistyaev, 
        Dmitry Zuev, Prashant Manohar, Xintian Feng, Anna Krylov, 
        Matthew Goldey, Alec White, Thomas Jagau, Kaushik Nanda, 
        Anastasia Gunina, Alexander Kunitsa, Joonho Lee.

   CCMAN original authors:
   Anna I. Krylov, C. David Sherrill, Steven R. Gwaltney,
   Edward F. C. Byrd (2000)
   Sergey V. Levchenko, Lyudmila V. Slipchenko, Tao Wang,
   Ana-Maria C. Cristian (2003)
   Piotr A. Pieniazek, C. Melania Oana, Evgeny Epifanovsky (2007)
   Prashant Manohar (2009)

 ------------------------------------------------------------------------------


 Allocating and initializing 100000MB of RAM...
 Calculation will run on 4 cores.


 Alpha MOs, Restricted
 -- Occupied --                  
-15.633 -15.585 -15.571 -15.558 -15.551 -11.343 -11.328 -11.322
  1 A'    2 A'    3 A'    4 A'    5 A'    6 A'    7 A'    8 A'                 
-11.314 -11.257  -1.374  -1.307  -1.253  -1.192  -1.157  -1.040
  9 A'   10 A'   11 A'   12 A'   13 A'   14 A'   15 A'   16 A'                 
 -0.901  -0.882  -0.849  -0.785  -0.745  -0.703  -0.683  -0.641
 17 A'   18 A'   19 A'   20 A'   21 A'   22 A'   23 A'    1 A"                 
 -0.639  -0.619  -0.597  -0.561  -0.500  -0.497  -0.452  -0.426
 24 A'   25 A'   26 A'    2 A"    3 A"   27 A'   28 A'    4 A"                 
 -0.411  -0.375  -0.312
 29 A'    5 A"    6 A"                                                         
 -- Virtual --                   
  0.010   0.016   0.021   0.024   0.028   0.029   0.033   0.036
 30 A'   31 A'   32 A'    7 A"   33 A'   34 A'    8 A"    9 A"                 
  0.037   0.041   0.042   0.049   0.052   0.052   0.055   0.057
 35 A'   36 A'   37 A'   38 A'   10 A"   39 A'   40 A'   11 A"                 
  0.059   0.061   0.065   0.071   0.080   0.081   0.082   0.082
 41 A'   42 A'   43 A'   44 A'   45 A'   12 A"   13 A"   46 A'                 
  0.091   0.091   0.092   0.099   0.100   0.102   0.103   0.104
 14 A"   47 A'   48 A'   49 A'   15 A"   50 A'   16 A"   51 A'                 
  0.107   0.112   0.116   0.118   0.123   0.131   0.138   0.141
 52 A'   53 A'   17 A"   54 A'   55 A'   56 A'   57 A'   18 A"                 
  0.149   0.150   0.159   0.164   0.180   0.199   0.203   0.210
 58 A'   59 A'   60 A'   19 A"   61 A'   62 A'   63 A'   20 A"                 
  0.212   0.215   0.222   0.226   0.226   0.231   0.233   0.234
 64 A'   65 A'   21 A"   66 A'   22 A"   67 A'   23 A"   68 A'                 
  0.238   0.242   0.248   0.262   0.268   0.284   0.287   0.293
 69 A'   24 A"   70 A'   71 A'   72 A'   73 A'   74 A'   25 A"                 
  0.303   0.309   0.323   0.333   0.335   0.339   0.339   0.346
 26 A"   75 A'   76 A'   77 A'   27 A"   78 A'   28 A"   79 A'                 
  0.351   0.363   0.368   0.371   0.385   0.390   0.401   0.414
 80 A'   81 A'   29 A"   82 A'   83 A'   84 A'   85 A'   86 A'                 
  0.416   0.420   0.429   0.439   0.457   0.460   0.472   0.474
 30 A"   87 A'   88 A'   89 A'   90 A'   91 A'   92 A'   93 A'                 
  0.477   0.494   0.504   0.517   0.536   0.550   0.575   0.587
 94 A'   95 A'   96 A'   97 A'   98 A'   99 A'  100 A'  101 A'                 
  0.614   0.646   0.664   0.693   0.724   0.769   0.773   0.775
102 A'  103 A'  104 A'  105 A'  106 A'  107 A'  108 A'   31 A"                 
  0.787   0.805   0.813   0.821   0.834   0.870   0.888   0.914
 32 A"  109 A'   33 A"   34 A"  110 A'   35 A"  111 A'  112 A'                 
  0.935   0.959   0.984   0.999   1.029   1.037   1.052   1.063
113 A'  114 A'  115 A'  116 A'  117 A'  118 A'  119 A'   36 A"                 
  1.078   1.085   1.096   1.113   1.120   1.127   1.136   1.140
 37 A"  120 A'  121 A'  122 A'  123 A'  124 A'   38 A"   39 A"                 
  1.142   1.152   1.173   1.184   1.207   1.226   1.233   1.240
125 A'  126 A'  127 A'  128 A'   40 A"  129 A'  130 A'   41 A"                 
  1.247   1.269   1.298   1.304   1.312   1.350   1.368   1.400
131 A'  132 A'  133 A'   42 A"  134 A'  135 A'   43 A"  136 A'                 
  1.407   1.414   1.450   1.455   1.485   1.555   1.565   1.577
 44 A"   45 A"   46 A"  137 A'   47 A"  138 A'  139 A'   48 A"                 
  1.648   1.668   1.682   1.761   1.791   1.806   1.834   1.884
 49 A"  140 A'  141 A'  142 A'  143 A'  144 A'  145 A'  146 A'                 
  1.888   1.945   1.949   1.991   2.005   2.017   2.026   2.056
 50 A"  147 A'   51 A"  148 A'  149 A'   52 A"  150 A'  151 A'                 
  2.084   2.085   2.122   2.137   2.152   2.202   2.225   2.236
 53 A"  152 A'  153 A'   54 A"  154 A'  155 A'   55 A"  156 A'                 
  2.302   2.334   2.456   2.479   2.489   2.490   2.518   2.564
157 A'  158 A'  159 A'  160 A'   56 A"  161 A'  162 A'   57 A"                 
  2.598   2.612   2.622   2.656   2.726   2.743   2.801   2.863
 58 A"  163 A'  164 A'   59 A"  165 A'   60 A"   61 A"   62 A"                 
  2.888   2.902   2.905   2.944   2.985   2.990   2.998   3.016
166 A'  167 A'   63 A"  168 A'  169 A'  170 A'   64 A"  171 A'                 
  3.076   3.115   3.122   3.150   3.184   3.210   3.214   3.225
172 A'   65 A"  173 A'  174 A'  175 A'  176 A'  177 A'   66 A"                 
  3.246   3.271   3.279   3.287   3.293   3.316   3.371   3.389
178 A'   67 A"   68 A"  179 A'   69 A"  180 A'  181 A'  182 A'                 
  3.396   3.466   3.509   3.693   3.734   3.809   3.897   3.919
 70 A"  183 A'  184 A'  185 A'  186 A'  187 A'  188 A'  189 A'                 
  3.965   4.023   4.078   4.107   4.146   4.188   4.286   4.341
190 A'  191 A'  192 A'  193 A'  194 A'  195 A'  196 A'   71 A"                 
  4.362   4.423   4.440   4.461   4.535   4.806   4.915   5.032
 72 A"   73 A"   74 A"   75 A"  197 A'  198 A'  199 A'  200 A'                 
  5.056   5.256   5.298   5.444   5.535   5.584   5.699   5.766
201 A'  202 A'  203 A'  204 A'  205 A'  206 A'  207 A'  208 A'                 
  5.810   5.853   5.878   6.077  20.697  20.755  20.807  20.888
209 A'  210 A'  211 A'  212 A'  213 A'  214 A'  215 A'  216 A'                 
 20.979  37.022  37.073  37.115  37.171  37.195  80.257  80.300
217 A'  218 A'  219 A'  220 A'  221 A'  222 A'  223 A'  224 A'                 
 80.343  80.405  80.492 322.085 322.117 322.155 322.204 322.287
225 A'  226 A'  227 A'  228 A'  229 A'  230 A'  231 A'  232 A'                 
*******1431.6651431.6991431.7411431.8178749.8668749.8818749.912
233 A'  234 A'  235 A'  236 A'  237 A'  238 A'  239 A'  240 A'                 
*******8750.016
241 A'  242 A'                                                                 

 Beta MOs, Restricted
 -- Occupied --                  
-15.633 -15.585 -15.571 -15.558 -15.551 -11.343 -11.328 -11.322
  1 A'    2 A'    3 A'    4 A'    5 A'    6 A'    7 A'    8 A'                 
-11.314 -11.257  -1.374  -1.307  -1.253  -1.192  -1.157  -1.040
  9 A'   10 A'   11 A'   12 A'   13 A'   14 A'   15 A'   16 A'                 
 -0.901  -0.882  -0.849  -0.785  -0.745  -0.703  -0.683  -0.641
 17 A'   18 A'   19 A'   20 A'   21 A'   22 A'   23 A'    1 A"                 
 -0.639  -0.619  -0.597  -0.561  -0.500  -0.497  -0.452  -0.426
 24 A'   25 A'   26 A'    2 A"    3 A"   27 A'   28 A'    4 A"                 
 -0.411  -0.375  -0.312
 29 A'    5 A"    6 A"                                                         
 -- Virtual --                   
  0.010   0.016   0.021   0.024   0.028   0.029   0.033   0.036
 30 A'   31 A'   32 A'    7 A"   33 A'   34 A'    8 A"    9 A"                 
  0.037   0.041   0.042   0.049   0.052   0.052   0.055   0.057
 35 A'   36 A'   37 A'   38 A'   10 A"   39 A'   40 A'   11 A"                 
  0.059   0.061   0.065   0.071   0.080   0.081   0.082   0.082
 41 A'   42 A'   43 A'   44 A'   45 A'   12 A"   13 A"   46 A'                 
  0.091   0.091   0.092   0.099   0.100   0.102   0.103   0.104
 14 A"   47 A'   48 A'   49 A'   15 A"   50 A'   16 A"   51 A'                 
  0.107   0.112   0.116   0.118   0.123   0.131   0.138   0.141
 52 A'   53 A'   17 A"   54 A'   55 A'   56 A'   57 A'   18 A"                 
  0.149   0.150   0.159   0.164   0.180   0.199   0.203   0.210
 58 A'   59 A'   60 A'   19 A"   61 A'   62 A'   63 A'   20 A"                 
  0.212   0.215   0.222   0.226   0.226   0.231   0.233   0.234
 64 A'   65 A'   21 A"   66 A'   22 A"   67 A'   23 A"   68 A'                 
  0.238   0.242   0.248   0.262   0.268   0.284   0.287   0.293
 69 A'   24 A"   70 A'   71 A'   72 A'   73 A'   74 A'   25 A"                 
  0.303   0.309   0.323   0.333   0.335   0.339   0.339   0.346
 26 A"   75 A'   76 A'   77 A'   27 A"   78 A'   28 A"   79 A'                 
  0.351   0.363   0.368   0.371   0.385   0.390   0.401   0.414
 80 A'   81 A'   29 A"   82 A'   83 A'   84 A'   85 A'   86 A'                 
  0.416   0.420   0.429   0.439   0.457   0.460   0.472   0.474
 30 A"   87 A'   88 A'   89 A'   90 A'   91 A'   92 A'   93 A'                 
  0.477   0.494   0.504   0.517   0.536   0.550   0.575   0.587
 94 A'   95 A'   96 A'   97 A'   98 A'   99 A'  100 A'  101 A'                 
  0.614   0.646   0.664   0.693   0.724   0.769   0.773   0.775
102 A'  103 A'  104 A'  105 A'  106 A'  107 A'  108 A'   31 A"                 
  0.787   0.805   0.813   0.821   0.834   0.870   0.888   0.914
 32 A"  109 A'   33 A"   34 A"  110 A'   35 A"  111 A'  112 A'                 
  0.935   0.959   0.984   0.999   1.029   1.037   1.052   1.063
113 A'  114 A'  115 A'  116 A'  117 A'  118 A'  119 A'   36 A"                 
  1.078   1.085   1.096   1.113   1.120   1.127   1.136   1.140
 37 A"  120 A'  121 A'  122 A'  123 A'  124 A'   38 A"   39 A"                 
  1.142   1.152   1.173   1.184   1.207   1.226   1.233   1.240
125 A'  126 A'  127 A'  128 A'   40 A"  129 A'  130 A'   41 A"                 
  1.247   1.269   1.298   1.304   1.312   1.350   1.368   1.400
131 A'  132 A'  133 A'   42 A"  134 A'  135 A'   43 A"  136 A'                 
  1.407   1.414   1.450   1.455   1.485   1.555   1.565   1.577
 44 A"   45 A"   46 A"  137 A'   47 A"  138 A'  139 A'   48 A"                 
  1.648   1.668   1.682   1.761   1.791   1.806   1.834   1.884
 49 A"  140 A'  141 A'  142 A'  143 A'  144 A'  145 A'  146 A'                 
  1.888   1.945   1.949   1.991   2.005   2.017   2.026   2.056
 50 A"  147 A'   51 A"  148 A'  149 A'   52 A"  150 A'  151 A'                 
  2.084   2.085   2.122   2.137   2.152   2.202   2.225   2.236
 53 A"  152 A'  153 A'   54 A"  154 A'  155 A'   55 A"  156 A'                 
  2.302   2.334   2.456   2.479   2.489   2.490   2.518   2.564
157 A'  158 A'  159 A'  160 A'   56 A"  161 A'  162 A'   57 A"                 
  2.598   2.612   2.622   2.656   2.726   2.743   2.801   2.863
 58 A"  163 A'  164 A'   59 A"  165 A'   60 A"   61 A"   62 A"                 
  2.888   2.902   2.905   2.944   2.985   2.990   2.998   3.016
166 A'  167 A'   63 A"  168 A'  169 A'  170 A'   64 A"  171 A'                 
  3.076   3.115   3.122   3.150   3.184   3.210   3.214   3.225
172 A'   65 A"  173 A'  174 A'  175 A'  176 A'  177 A'   66 A"                 
  3.246   3.271   3.279   3.287   3.293   3.316   3.371   3.389
178 A'   67 A"   68 A"  179 A'   69 A"  180 A'  181 A'  182 A'                 
  3.396   3.466   3.509   3.693   3.734   3.809   3.897   3.919
 70 A"  183 A'  184 A'  185 A'  186 A'  187 A'  188 A'  189 A'                 
  3.965   4.023   4.078   4.107   4.146   4.188   4.286   4.341
190 A'  191 A'  192 A'  193 A'  194 A'  195 A'  196 A'   71 A"                 
  4.362   4.423   4.440   4.461   4.535   4.806   4.915   5.032
 72 A"   73 A"   74 A"   75 A"  197 A'  198 A'  199 A'  200 A'                 
  5.056   5.256   5.298   5.444   5.535   5.584   5.699   5.766
201 A'  202 A'  203 A'  204 A'  205 A'  206 A'  207 A'  208 A'                 
  5.810   5.853   5.878   6.077  20.697  20.755  20.807  20.888
209 A'  210 A'  211 A'  212 A'  213 A'  214 A'  215 A'  216 A'                 
 20.979  37.022  37.073  37.115  37.171  37.195  80.257  80.300
217 A'  218 A'  219 A'  220 A'  221 A'  222 A'  223 A'  224 A'                 
 80.343  80.405  80.492 322.085 322.117 322.155 322.204 322.287
225 A'  226 A'  227 A'  228 A'  229 A'  230 A'  231 A'  232 A'                 
*******1431.6651431.6991431.7411431.8178749.8668749.8818749.912
233 A'  234 A'  235 A'  236 A'  237 A'  238 A'  239 A'  240 A'                 
*******8750.016
241 A'  242 A'                                                                 

 Occupation and symmetry of molecular orbitals

 Point group: Cs (2 irreducible representations).

                           A'   A"    All 
 ------------------------------------------
 All molecular orbitals:
  - Alpha                  242  75    317 
  - Beta                   242  75    317 
 ------------------------------------------
 Alpha orbitals:
  - Frozen occupied        10   0     10  
  - Active occupied        19   6     25  
  - Active virtual         213  69    282 
  - Frozen virtual         0    0     0   
 ------------------------------------------
 Beta orbitals:
  - Frozen occupied        10   0     10  
  - Active occupied        19   6     25  
  - Active virtual         213  69    282 
  - Frozen virtual         0    0     0   
 ------------------------------------------

 Import integrals:   CPU 0.00 s  wall 0.00 s

 Import integrals:   CPU 1211.07 s  wall 422.84 s

 MP2 amplitudes:   CPU 4.11 s  wall 3.59 s

Running a double precision version
           CCSD T amplitudes will be solved using DIIS.

           Start     Size      MaxIter   EConv     TConv     
           3         7         100       1.00e-06  1.00e-04  
 ------------------------------------------------------------------------------
           Energy (a.u.)   Ediff      Tdiff       Comment
 ------------------------------------------------------------------------------
          -466.17865803                           
     1    -466.13779842   4.09e-02   1.16e+00     Step took 01.14.
     2    -466.19107334   5.33e-02   1.65e-01     
     3    -466.18732066   3.75e-03   6.37e-02     
     4    -466.19220125   4.88e-03   2.22e-02     Switched to DIIS steps.
     5    -466.19396302   1.76e-03   1.34e-02     
     6    -466.19410871   1.46e-04   3.36e-03     
     7    -466.19411313   4.42e-06   1.62e-03     
     8    -466.19411490   1.77e-06   5.02e-04     
     9    -466.19411958   4.68e-06   2.71e-04     
    10    -466.19412023   6.51e-07   9.37e-05     
 ------------------------------------------------------------------------------
          -466.19412023                           CCSD T converged.

End of double precision
 SCF energy                 = -464.63676502
 MP2 energy                 = -466.17865803
 CCSD correlation energy    =   -1.55735521
 CCSD total energy          = -466.19412023

 CCSD  T1^2 = 0.0258  T2^2 = 0.5275  Leading amplitudes:

 Amplitude    Orbitals with energies
  0.0293       3 (A") A                  ->    17 (A") A                  
              -0.5003                          0.1164                     
  0.0293       3 (A") B                  ->    17 (A") B                  
              -0.5003                          0.1164                     
  0.0247       5 (A") A                  ->    18 (A") A                  
              -0.3751                          0.1414                     
  0.0247       5 (A") B                  ->    18 (A") B                  
              -0.3751                          0.1414                     

 Amplitude    Orbitals with energies
 -0.0409       5 (A") A      5 (A") B    ->    18 (A") A     18 (A") B    
              -0.3751       -0.3751            0.1414        0.1414       
  0.0409       5 (A") A      5 (A") B    ->    18 (A") B     18 (A") A    
              -0.3751       -0.3751            0.1414        0.1414       
  0.0409       5 (A") B      5 (A") A    ->    18 (A") A     18 (A") B    
              -0.3751       -0.3751            0.1414        0.1414       
 -0.0409       5 (A") B      5 (A") A    ->    18 (A") B     18 (A") A    
              -0.3751       -0.3751            0.1414        0.1414       

 Computing CCSD intermediates for later calculations in double precision
 Finished.

Running a double precision version
           CCSD Lambda amplitudes will be solved using DIIS.
           Start     Size      MaxIter   EConv     LConv     
           3         7         100       1.00e-06  1.00e-04  
 ------------------------------------------------------------------------------
            Enorm      Ldiff       Comment
 ------------------------------------------------------------------------------
     1     6.92e-02   5.27e-02     
     2     1.50e-02   3.54e-03     
     3     6.09e-03   2.24e-03     
     4     3.08e-03   8.82e-04     Switched to DIIS steps.
     5     9.73e-04   5.69e-04     
     6     4.39e-04   1.63e-04     
     7     1.35e-04   3.89e-05     
     8     6.30e-05   2.97e-06     
     9     2.18e-05   1.63e-08     
    10     1.00e-05   8.86e-08     
    11     4.49e-06   5.04e-08     
    12     1.65e-06   7.62e-08     
    13     7.27e-07   4.06e-08     
 ------------------------------------------------------------------------------
                                   CCSD Lambda converged.

 CCSD calculation:   CPU 6008.24 s  wall 2275.26 s

        Solving for CVS-EOMIP-CCSD A' transitions.

Running a double precision version
      CVS-EOMIP-CCSD/MP2 right amplitudes will be solved using Davidson.
        Amplitudes will be solved using standard  algorithm.
     Hard-coded thresholds: 
     LinDepThresh=1.00e-15  NormThresh=1.00e-06  ReorthogonThresh=1.00e-02

      Roots     MaxVec    MaxIter   Precond   Conv      Shift    
      5         120       60        1         1.00e-05  0.00e+00  
 ------------------------------------------------------------------------------
      Iter ConvRoots NVecs ResNorm Current eigenvalues (eV)
 ------------------------------------------------------------------------------
      0    0      5     9.79e-01   306.0945   307.2350   307.5735   307.6969   308.1050   
      1    0      10    2.25e+00   303.1658   304.4235   304.6772   304.8789   305.2467   
      2    0      15    2.97e-02   291.9326   293.3866   293.5401   293.8382   294.1949   
      3    0      20    2.37e-03   291.5237   292.9722   293.1468   293.4151   293.7972   
      4    0      25    2.79e-04   291.5040   292.9431   293.1205   293.3880   293.7686   
      5    1      30    1.62e-05   291.5000*  292.9360   293.1144   293.3796   293.7617   
      6    5      34    5.52e-06   291.5000*  292.9359*  293.1143*  293.3794*  293.7612*  

     Davidson procedure converged

 EOMIP transition 1/A'
 Total energy = -455.48169223 a.u.  Excitation energy = 291.5000 eV.
 R1^2 = 0.8934  R2_CCVV^2 = 0.0018  R2_COVV^2 = 0.1057  Res^2 = 8.90e-06
 Conv-d = yes

 Amplitude    Transitions between orbitals
 -0.9452       10 (A') A                 ->    infty        
 -0.0028       8 (A') A                  ->    infty        
  0.0015       6 (A') A                  ->    infty        
  0.0002       7 (A') A                  ->    infty        

              Summary of significant orbitals:

               Number  Type             Irrep      Energy
               6       Occ  Alpha       6 (A')    -11.3434
               7       Occ  Alpha       7 (A')    -11.3278
               8       Occ  Alpha       8 (A')    -11.3221
               10      Occ  Alpha      10 (A')    -11.2569


 EOMIP transition 2/A'
 Total energy = -455.42892459 a.u.  Excitation energy = 292.9359 eV.
 R1^2 = 0.8845  R2_CCVV^2 = 0.0018  R2_COVV^2 = 0.1146  Res^2 = 5.30e-06
 Conv-d = yes

 Amplitude    Transitions between orbitals
  0.9405       9 (A') A                  ->    infty        
  0.0017       8 (A') A                  ->    infty        
 -0.0003       6 (A') A                  ->    infty        
  0.0002       10 (A') A                 ->    infty        

              Summary of significant orbitals:

               Number  Type             Irrep      Energy
               6       Occ  Alpha       6 (A')    -11.3434
               8       Occ  Alpha       8 (A')    -11.3221
               9       Occ  Alpha       9 (A')    -11.3135
               10      Occ  Alpha      10 (A')    -11.2569


 EOMIP transition 3/A'
 Total energy = -455.42236911 a.u.  Excitation energy = 293.1143 eV.
 R1^2 = 0.8893  R2_CCVV^2 = 0.0018  R2_COVV^2 = 0.1098  Res^2 = 3.14e-06
 Conv-d = yes

 Amplitude    Transitions between orbitals
  0.9430       8 (A') A                  ->    infty        
 -0.0029       10 (A') A                 ->    infty        
 -0.0016       9 (A') A                  ->    infty        
  0.0005       7 (A') A                  ->    infty        

              Summary of significant orbitals:

               Number  Type             Irrep      Energy
               7       Occ  Alpha       7 (A')    -11.3278
               8       Occ  Alpha       8 (A')    -11.3221
               9       Occ  Alpha       9 (A')    -11.3135
               10      Occ  Alpha      10 (A')    -11.2569


 EOMIP transition 4/A'
 Total energy = -455.41262667 a.u.  Excitation energy = 293.3794 eV.
 R1^2 = 0.8856  R2_CCVV^2 = 0.0018  R2_COVV^2 = 0.1135  Res^2 = 4.76e-06
 Conv-d = yes

 Amplitude    Transitions between orbitals
 -0.9410       7 (A') A                  ->    infty        
  0.0006       8 (A') A                  ->    infty        
 -0.0003       10 (A') A                 ->    infty        

              Summary of significant orbitals:

               Number  Type             Irrep      Energy
               7       Occ  Alpha       7 (A')    -11.3278
               8       Occ  Alpha       8 (A')    -11.3221
               10      Occ  Alpha      10 (A')    -11.2569


 EOMIP transition 5/A'
 Total energy = -455.39859280 a.u.  Excitation energy = 293.7612 eV.
 R1^2 = 0.8873  R2_CCVV^2 = 0.0018  R2_COVV^2 = 0.1118  Res^2 = 5.49e-06
 Conv-d = yes

 Amplitude    Transitions between orbitals
  0.9420       6 (A') A                  ->    infty        
  0.0015       10 (A') A                 ->    infty        
  0.0003       9 (A') A                  ->    infty        

              Summary of significant orbitals:

               Number  Type             Irrep      Energy
               6       Occ  Alpha       6 (A')    -11.3434
               9       Occ  Alpha       9 (A')    -11.3135
               10      Occ  Alpha      10 (A')    -11.2569


Running a double precision version
      CVS-EOMIP-CCSD/MP2 left amplitudes will be solved using Davidson.
        Amplitudes will be solved using MOM  algorithm.
     Hard-coded thresholds: 
     LinDepThresh=1.00e-15  NormThresh=1.00e-06  ReorthogonThresh=1.00e-02

      Roots     MaxVec    MaxIter   Precond   Conv      Shift    
      5         120       60        1         1.00e-05  0.00e+00  
 ------------------------------------------------------------------------------
      Iter ConvRoots NVecs ResNorm Current eigenvalues (eV)
 ------------------------------------------------------------------------------
      0    0      5     1.73e-02   292.5035   293.7801   294.0243   294.2577   294.6228   
      1    0      10    6.01e-01   291.5187   292.9817   293.1487   293.4297   293.8006   
      2    0      15    2.84e-02   291.5038   292.9394   293.1200   293.3815   293.7659   
      3    0      20    1.97e-03   291.5008   292.9408   293.1173   293.3840   293.7655   
      4    3      25    8.03e-06   291.4994*  292.9349*  293.1134   293.3780*  293.7599   
      5    3      27    9.85e-06   291.4994*  292.9349*  293.1141   293.3780*  293.7609   
      6    5      29    3.52e-06   291.4994*  292.9349*  293.1142*  293.3780*  293.7611*  

     Davidson procedure converged

 CVS-EOMIP-CCSD calculation:   CPU 237.92 s  wall 133.23 s


 Reference -- EOM-IP-CCSD state  1/A'   transition
 Energy difference = 291.5000 eV.

 Left Dyson orbital norm is 0.923270

Left alpha Dyson orbital in the MO basis (canonical Q-Chem's ordering):
0     3.0621e-06
1     2.3333e-06
2     3.3569e-05
3     -2.2973e-06
4     1.5245e-06
5     1.6624e-03
6     2.5965e-04
7     -3.0469e-03
8     1.9024e-04
9     -9.9999e-01
10    -1.8816e-16
11    1.1663e-17
12    -2.5747e-16
13    1.2753e-16
14    2.8811e-16
15    -2.0572e-16
16    9.0747e-17
17    -4.2240e-16
18    -4.7516e-16
19    2.5037e-16
20    4.8910e-16
21    -6.5377e-16
22    -2.3083e-16
23    6.9955e-17
24    -2.2810e-16
25    8.9623e-17
26    8.0332e-17
27    -1.5747e-16
28    -1.3444e-16
29    1.2732e-16
30    -4.3146e-17
31    8.4642e-17
32    -8.1828e-17
33    -3.7548e-17
34    2.1847e-17
35    2.3996e-17
36    7.0857e-16
37    -5.4781e-16
38    5.0087e-16
39    -9.4251e-15
40    -8.6080e-15
41    8.4154e-16
42    2.3039e-15
43    3.8131e-15
44    -7.6414e-16
45    5.7054e-16
46    -3.6070e-15
47    -2.7814e-15
48    -6.9658e-15
49    4.8972e-15
50    -2.6686e-16
51    3.0941e-14
52    3.1064e-15
53    1.7091e-14
54    3.2903e-15
55    4.0313e-15
56    7.3631e-16
57    -9.2116e-16
58    9.7718e-16
59    2.2182e-15
60    6.5852e-15
61    -7.8085e-15
62    -1.0508e-14
63    4.1386e-15
64    5.0567e-16
65    2.4233e-15
66    4.3174e-16
67    -7.4136e-15
68    -3.8960e-15
69    -4.2937e-16
70    4.7943e-15
71    7.9933e-15
72    -1.8072e-14
73    2.4318e-14
74    1.2793e-16
75    4.2026e-15
76    -4.0913e-15
77    -1.5580e-14
78    2.2203e-16
79    5.7053e-15
80    -2.7644e-15
81    -1.1441e-14
82    -6.2822e-15
83    -1.0481e-14
84    3.9687e-15
85    -3.2411e-15
86    7.3370e-15
87    8.7576e-15
88    4.1990e-15
89    -3.8261e-15
90    2.3958e-15
91    -1.5031e-15
92    7.0955e-15
93    1.0664e-14
94    -1.4923e-15
95    -1.9380e-14
96    -6.0184e-15
97    -1.2929e-14
98    2.3590e-15
99    -4.9758e-15
100   5.7183e-15
101   2.3603e-16
102   -5.3834e-15
103   -3.0248e-15
104   1.1914e-14
105   -2.8584e-15
106   1.1923e-15
107   -2.8066e-15
108   3.0514e-16
109   7.8911e-15
110   4.3955e-15
111   -3.6853e-15
112   2.1328e-15
113   -5.3410e-15
114   -2.1227e-15
115   1.1927e-14
116   -2.1009e-15
117   1.2157e-14
118   -1.0384e-15
119   7.6524e-15
120   2.2481e-15
121   -1.2503e-16
122   4.9109e-15
123   4.0900e-15
124   5.7467e-15
125   -9.4116e-15
126   -1.5179e-15
127   -2.3187e-15
128   5.8474e-15
129   7.7632e-15
130   8.5588e-16
131   -1.0995e-15
132   2.3602e-15
133   -1.9911e-16
134   -3.3461e-15
135   9.4743e-16
136   -1.5350e-15
137   1.2562e-15
138   2.1647e-15
139   2.4379e-16
140   2.6564e-16
141   -2.9800e-15
142   1.9874e-16
143   3.1420e-15
144   1.5374e-15
145   4.5385e-15
146   -4.5538e-15
147   -3.7519e-15
148   2.8779e-15
149   9.1481e-15
150   1.3960e-16
151   -4.5680e-16
152   9.8095e-16
153   3.4724e-15
154   5.9745e-16
155   5.2789e-16
156   2.5712e-15
157   -4.2393e-15
158   1.5041e-15
159   6.5807e-16
160   -2.4685e-15
161   1.4865e-15
162   -1.3217e-15
163   -2.2819e-15
164   2.6617e-15
165   -3.5141e-15
166   -2.5925e-15
167   5.9083e-15
168   9.6261e-16
169   1.8742e-16
170   1.6251e-15
171   4.5590e-15
172   2.5837e-15
173   2.5978e-15
174   1.8193e-15
175   -9.2850e-16
176   2.0995e-15
177   -8.2410e-16
178   -6.2890e-16
179   1.3706e-16
180   3.5772e-16
181   1.4732e-16
182   -2.6341e-15
183   9.0012e-16
184   1.0053e-16
185   -1.6237e-15
186   2.6302e-16
187   1.8579e-16
188   8.8498e-16
189   2.4289e-15
190   -1.7501e-15
191   -3.7741e-16
192   -5.2123e-15
193   -2.2314e-15
194   -1.9010e-16
195   -1.0394e-15
196   9.9904e-16
197   6.3135e-16
198   -6.1240e-16
199   -3.4323e-15
200   -3.5587e-16
201   5.6990e-16
202   -7.4873e-16
203   -2.3108e-16
204   6.3761e-16
205   -2.4438e-15
206   7.0337e-16
207   -1.6565e-15
208   -1.7789e-15
209   8.2412e-21
210   2.0141e-15
211   -3.7485e-16
212   -6.6163e-17
213   3.3916e-15
214   6.4307e-16
215   -7.0943e-16
216   3.4630e-15
217   2.9885e-17
218   5.9695e-16
219   3.2442e-16
220   1.1864e-15
221   8.6666e-16
222   -1.8909e-16
223   1.6077e-15
224   2.6151e-16
225   -9.4609e-16
226   2.8627e-16
227   9.4969e-16
228   -4.1646e-16
229   -2.4813e-16
230   -2.7730e-15
231   -5.7389e-16
232   2.2938e-15
233   3.7618e-17
234   1.6847e-15
235   -1.2102e-16
236   -1.0661e-16
237   1.5655e-15
238   -2.9748e-16
239   -3.7465e-16
240   4.2470e-15
241   -6.7520e-16
242   -7.2002e-16
243   -2.1516e-16
244   5.2505e-16
245   1.1578e-15
246   8.3084e-16
247   5.2093e-16
248   -6.4414e-16
249   8.7054e-16
250   2.3088e-17
251   1.0371e-16
252   6.1512e-16
253   4.2125e-17
254   8.4296e-17
255   7.4088e-16
256   6.4819e-16
257   5.7581e-16
258   -2.2648e-16
259   -1.0740e-15
260   3.3015e-16
261   1.1830e-15
262   8.4222e-16
263   7.5399e-16
264   1.2185e-15
265   1.4232e-15
266   6.3321e-16
267   -2.5719e-16
268   1.1816e-15
269   8.6779e-16
270   -2.9493e-15
271   -6.9448e-16
272   -9.5934e-16
273   4.3676e-16
274   -9.5349e-17
275   -6.7441e-16
276   -1.3549e-15
277   4.2650e-16
278   -9.9832e-16
279   -2.4255e-16
280   -3.2790e-16
281   -7.0868e-16
282   1.9796e-15
283   1.0612e-15
284   -4.6310e-16
285   -2.5466e-16
286   4.0025e-16
287   -9.2666e-16
288   -1.3198e-15
289   5.7385e-16
290   -1.8057e-15
291   -1.0860e-15
292   -4.3653e-16
293   2.3210e-16
294   2.7807e-16
295   5.2580e-16
296   -2.3936e-16
297   7.1277e-17
298   -1.0055e-15
299   -3.4666e-16
300   -4.7371e-16
301   -2.6790e-15
302   3.6862e-16
303   2.2776e-16
304   -2.2936e-16
305   4.2856e-16
306   -4.2559e-17
307   1.0231e-16
308   1.0551e-16
309   -3.2229e-17
310   -4.0151e-16
311   4.2729e-16
312   -4.1828e-16
313   -1.5422e-16
314   1.0376e-16
315   -7.2788e-17
316   -4.8559e-16

Decomposition over AOs for the left alpha Dyson orbital:
-4.57544721e-06
1.43180201e-06
-2.00157869e-05
-1.74185718e-05
-1.92874017e-15
-3.20512522e-05
5.48006658e-05
7.57822708e-05
4.22658759e-15
-4.74121290e-05
5.77979401e-05
-1.46139372e-04
-2.00088454e-14
-5.99804662e-04
4.05201482e-04
-1.14474651e-04
1.13768544e-13
6.39601214e-05
1.89737535e-04
-1.05993121e-04
7.54756624e-14
-4.11585024e-05
-4.96900209e-16
4.99829450e-06
1.22777995e-16
-2.45347649e-05
-6.37986985e-06
-1.09046984e-06
-3.85479267e-06
-2.89498188e-05
-2.82070418e-15
-1.62827175e-05
3.06298694e-05
7.62685667e-05
4.18575585e-15
-1.20271842e-04
-1.47702673e-04
5.38794517e-05
-1.92371845e-14
-1.25030319e-04
-1.79027759e-04
2.54952730e-05
9.99529739e-14
-3.03954606e-04
-1.75365874e-04
1.98423102e-05
1.19824322e-13
-1.94492337e-06
2.89619732e-16
1.38772163e-05
1.95893420e-16
4.99317685e-05
1.45329540e-04
2.13619072e-04
-6.93876097e-05
-8.68828308e-05
2.50635665e-15
-3.46928307e-04
-5.15695374e-04
-3.65973545e-04
-4.66943560e-15
-1.42198384e-04
5.84946458e-05
4.64267686e-05
2.31315290e-14
5.84618434e-04
2.48931412e-04
3.72588038e-05
-9.86019395e-14
7.03020172e-04
-8.56235682e-05
1.17514173e-04
-2.72545683e-14
-2.92090777e-04
6.55224602e-16
1.05225476e-04
-4.99161536e-16
-9.75564321e-06
-9.34679916e-06
-1.61984875e-07
2.50196441e-05
-2.95047922e-06
8.81951392e-16
-4.82470761e-05
-9.35126423e-05
1.43526616e-05
5.69295660e-16
-1.01964007e-04
-3.36162179e-05
1.52960569e-04
-4.28995861e-15
-8.54412960e-04
-6.44787655e-04
6.73438495e-04
4.33068136e-14
-3.32397052e-04
-3.20299015e-04
4.36721622e-04
-1.33669690e-14
-1.32148132e-05
-4.19502865e-16
5.82629813e-06
-3.52257629e-16
-2.55510032e-05
-7.30035037e-06
-1.33077099e-06
-1.83255348e-05
1.89367964e-05
-4.67004060e-16
-3.84602627e-05
5.74927543e-05
-7.41597114e-05
2.39722665e-15
1.45245804e-04
3.48608073e-05
1.10901258e-04
-9.10216461e-15
-1.20795150e-04
5.51503992e-05
1.22852207e-04
5.13997696e-14
1.63157109e-05
-1.40428991e-04
3.15900262e-05
-1.34043986e-14
4.50492848e-05
-1.67479735e-17
1.13186944e-06
-8.16684462e-16
3.65569063e-06
-4.28639133e-07
-3.34071190e-06
-1.65055019e-05
-5.72911139e-05
-1.29334947e-04
-2.40849229e-05
-1.95278165e-04
-1.51180234e-06
-5.68213559e-06
-1.67848693e-15
-4.38244460e-05
-3.76240918e-06
2.61868237e-05
2.52333316e-15
5.20478565e-04
-6.19425147e-05
-1.04828008e-04
-1.47860096e-14
1.20274458e-03
-4.67049643e-04
-3.98729967e-04
-8.52018294e-14
9.33500234e-04
-1.50658262e-04
-1.02122735e-04
-9.52016838e-14
2.84220865e-05
-4.88848040e-17
3.77378958e-07
3.79508527e-16
8.37475515e-07
1.41421933e-05
1.09558840e-04
5.46104189e-04
1.87737218e-03
4.42012087e-03
1.65794813e-03
6.00946459e-03
-6.60893983e-05
1.32688832e-04
-2.02608303e-16
-4.62153746e-04
-2.17504626e-04
4.78004453e-04
-4.79746824e-16
9.78499919e-04
1.42782486e-04
-5.50228997e-04
5.99057944e-15
-7.28802061e-05
-2.29624787e-04
-5.87453426e-04
-2.68671615e-13
2.29750872e-04
5.99270768e-04
-3.07417225e-04
-2.51359843e-14
2.56148455e-04
-1.00079805e-15
1.39343402e-05
-1.74808902e-16
2.04496980e-04
-1.10900579e-03
-8.58565808e-03
-4.28276628e-02
-1.47049410e-01
-3.47356963e-01
-1.27005279e-01
-4.64973482e-01
1.37506394e-04
3.56244188e-04
-4.11571629e-16
-2.02933248e-03
-5.04616252e-05
-3.13036456e-04
3.93790037e-15
-1.82743035e-03
4.45850545e-05
-1.89423094e-04
-1.83091337e-14
-9.35134866e-03
-4.55324294e-03
7.54500090e-04
3.95598311e-13
-1.12076436e-03
-3.10971336e-04
2.98267735e-04
-5.38545936e-14
9.86503993e-05
-8.51806745e-16
1.05773922e-04
-5.67041791e-16
-5.86758125e-05
9.14905757e-06
7.08881488e-05
3.53304061e-04
1.21497407e-03
2.85960721e-03
1.09679640e-03
3.90211951e-03
1.20758012e-04
-9.58171526e-06
-8.28649594e-16
-4.37927884e-04
5.57708680e-04
4.30476154e-06
1.97580201e-15
3.57931794e-04
-5.37498066e-04
1.19873854e-04
4.53204018e-16
1.04263751e-02
-2.98899373e-03
-8.48730622e-05
-2.88286141e-13
-4.75521807e-04
1.68769988e-05
-4.54502082e-04
6.68331457e-14
-7.85543608e-06
-1.66725874e-16
3.86970444e-05
-1.16672860e-15
-3.20393218e-04
-4.63975540e-07
-3.60487847e-06
-1.78950503e-05
-6.17109362e-05
-1.40402433e-04
-1.05025789e-05
-2.12479228e-04
5.41163670e-06
-1.48732701e-05
1.63944653e-15
-1.27836948e-04
-9.34630659e-05
6.43401300e-05
-1.03091656e-15
5.77837089e-04
2.31720850e-04
1.02531921e-04
6.81289883e-15
-1.30924061e-03
-4.22640267e-04
-1.36484818e-04
7.17913440e-15
3.44627375e-04
5.31248935e-05
2.65107009e-05
4.21518041e-14
9.03199192e-05
2.04071290e-16
-1.19494607e-05
-4.21046055e-16
3.02419260e-07
-1.38279436e-05
-3.73310843e-05
-3.02435271e-04
-7.50983577e-04
-1.77727160e-05
1.63300834e-05
2.08113879e-16
-1.85760226e-05
-5.80514540e-05
1.54135556e-04
-2.07522940e-04
-3.62392282e-05
-7.37808417e-06
3.86051299e-16
-2.99129802e-06
-5.03414663e-05
9.67383023e-05
3.83647019e-04
7.98243179e-06
1.21566382e-05
-5.28722292e-16
-5.14846627e-06
-6.24464610e-06
1.20605732e-04
-1.18166175e-05
-4.60472550e-06
-1.26598582e-05
-9.24466311e-17
-7.66792685e-06
-5.66281581e-05
5.63883398e-05
2.25902643e-04
1.91695546e-05
-3.53786091e-06
9.90840992e-16
   *****

 Right Dyson orbital norm is 0.945352

Right alpha Dyson orbital in the MO basis (canonical Q-Chem's ordering):
0     2.8844e-06
1     2.1922e-06
2     3.0873e-05
3     -2.0074e-06
4     1.1799e-06
5     1.6740e-03
6     2.2811e-04
7     -3.0569e-03
8     1.6410e-04
9     -9.9999e-01
10    -1.8805e-16
11    1.3749e-17
12    -2.5767e-16
13    1.2289e-16
14    2.8894e-16
15    -2.0605e-16
16    9.0541e-17
17    -4.2333e-16
18    -4.7567e-16
19    2.4992e-16
20    4.8952e-16
21    -6.5371e-16
22    -2.3086e-16
23    6.9955e-17
24    -2.2819e-16
25    8.9774e-17
26    8.0149e-17
27    -1.5747e-16
28    -1.3444e-16
29    1.2696e-16
30    -4.3383e-17
31    8.4643e-17
32    -8.2184e-17
33    -3.7550e-17
34    2.1846e-17
35    2.3550e-17
36    7.0952e-16
37    -5.4808e-16
38    5.0085e-16
39    -9.4253e-15
40    -8.6078e-15
41    8.4153e-16
42    2.3039e-15
43    3.8135e-15
44    -7.6422e-16
45    5.7040e-16
46    -3.6068e-15
47    -2.7816e-15
48    -6.9659e-15
49    4.8980e-15
50    -2.6700e-16
51    3.0941e-14
52    3.1055e-15
53    1.7091e-14
54    3.2902e-15
55    4.0314e-15
56    7.3629e-16
57    -9.2119e-16
58    9.7792e-16
59    2.2182e-15
60    6.5853e-15
61    -7.8082e-15
62    -1.0508e-14
63    4.1387e-15
64    5.0572e-16
65    2.4235e-15
66    4.3112e-16
67    -7.4136e-15
68    -3.8965e-15
69    -4.2947e-16
70    4.7945e-15
71    7.9939e-15
72    -1.8071e-14
73    2.4318e-14
74    1.2793e-16
75    4.2028e-15
76    -4.0927e-15
77    -1.5580e-14
78    2.2209e-16
79    5.7057e-15
80    -2.7649e-15
81    -1.1440e-14
82    -6.2822e-15
83    -1.0481e-14
84    3.9689e-15
85    -3.2411e-15
86    7.3374e-15
87    8.7577e-15
88    4.1993e-15
89    -3.8262e-15
90    2.3960e-15
91    -1.5032e-15
92    7.0954e-15
93    1.0664e-14
94    -1.4924e-15
95    -1.9380e-14
96    -6.0182e-15
97    -1.2929e-14
98    2.3590e-15
99    -4.9760e-15
100   5.7193e-15
101   2.3595e-16
102   -5.3832e-15
103   -3.0249e-15
104   1.1914e-14
105   -2.8584e-15
106   1.1923e-15
107   -2.8079e-15
108   3.0513e-16
109   7.8911e-15
110   4.3951e-15
111   -3.6858e-15
112   2.1324e-15
113   -5.3406e-15
114   -2.1230e-15
115   1.1927e-14
116   -2.1007e-15
117   1.2157e-14
118   -1.0388e-15
119   7.6520e-15
120   2.2482e-15
121   -1.2540e-16
122   4.9105e-15
123   4.0903e-15
124   5.7464e-15
125   -9.4118e-15
126   -1.5187e-15
127   -2.3182e-15
128   5.8481e-15
129   7.7623e-15
130   8.5613e-16
131   -1.0994e-15
132   2.3608e-15
133   -2.0011e-16
134   -3.3454e-15
135   9.4709e-16
136   -1.5347e-15
137   1.2564e-15
138   2.1648e-15
139   2.4376e-16
140   2.6585e-16
141   -2.9800e-15
142   1.9874e-16
143   3.1414e-15
144   1.5374e-15
145   4.5389e-15
146   -4.5539e-15
147   -3.7515e-15
148   2.8779e-15
149   9.1480e-15
150   1.3958e-16
151   -4.5679e-16
152   9.8090e-16
153   3.4673e-15
154   5.9750e-16
155   5.2788e-16
156   2.5678e-15
157   -4.2397e-15
158   1.5020e-15
159   6.5773e-16
160   -2.4687e-15
161   1.4866e-15
162   -1.3217e-15
163   -2.2811e-15
164   2.6587e-15
165   -3.5137e-15
166   -2.5924e-15
167   5.9083e-15
168   9.6299e-16
169   1.8797e-16
170   1.6251e-15
171   4.5599e-15
172   2.5835e-15
173   2.5982e-15
174   1.8193e-15
175   -9.2765e-16
176   2.0997e-15
177   -8.2410e-16
178   -6.2843e-16
179   1.3706e-16
180   3.5772e-16
181   1.4731e-16
182   -2.6342e-15
183   9.0012e-16
184   1.0076e-16
185   -1.6240e-15
186   2.6303e-16
187   1.8580e-16
188   8.8453e-16
189   2.4289e-15
190   -1.7503e-15
191   -3.7740e-16
192   -5.2119e-15
193   -2.2313e-15
194   -1.9050e-16
195   -1.0395e-15
196   9.9913e-16
197   6.3134e-16
198   -6.1118e-16
199   -3.4324e-15
200   -3.5587e-16
201   5.6951e-16
202   -7.4911e-16
203   -2.3108e-16
204   6.3764e-16
205   -2.4436e-15
206   7.0337e-16
207   -1.6573e-15
208   -1.7791e-15
209   -1.1114e-20
210   2.0140e-15
211   -3.7486e-16
212   -6.6498e-17
213   3.3917e-15
214   6.4331e-16
215   -7.0941e-16
216   3.4622e-15
217   2.8548e-17
218   5.9695e-16
219   3.2442e-16
220   1.1869e-15
221   8.6706e-16
222   -1.8910e-16
223   1.6074e-15
224   2.6150e-16
225   -9.4609e-16
226   2.8626e-16
227   9.4857e-16
228   -4.1665e-16
229   -2.4813e-16
230   -2.7729e-15
231   -5.7361e-16
232   2.2937e-15
233   3.7607e-17
234   1.6846e-15
235   -1.2025e-16
236   -1.0660e-16
237   1.5664e-15
238   -2.9762e-16
239   -3.7474e-16
240   4.2466e-15
241   -6.7527e-16
242   -7.2002e-16
243   -2.1524e-16
244   5.2507e-16
245   1.1578e-15
246   8.3107e-16
247   5.2093e-16
248   -6.4357e-16
249   8.6911e-16
250   2.2893e-17
251   1.0370e-16
252   6.1505e-16
253   4.2093e-17
254   8.2974e-17
255   7.4060e-16
256   6.4626e-16
257   5.7576e-16
258   -2.2583e-16
259   -1.0751e-15
260   3.3049e-16
261   1.1834e-15
262   8.4226e-16
263   7.5393e-16
264   1.2190e-15
265   1.4226e-15
266   6.3320e-16
267   -2.5719e-16
268   1.1817e-15
269   8.6779e-16
270   -2.9493e-15
271   -6.9467e-16
272   -9.5985e-16
273   4.3351e-16
274   -9.4166e-17
275   -6.7441e-16
276   -1.3536e-15
277   4.2697e-16
278   -9.9738e-16
279   -2.4222e-16
280   -3.2426e-16
281   -7.0921e-16
282   1.9796e-15
283   1.0632e-15
284   -4.6316e-16
285   -2.5414e-16
286   3.9899e-16
287   -9.3731e-16
288   -1.3194e-15
289   5.7094e-16
290   -1.8062e-15
291   -1.0916e-15
292   -4.3651e-16
293   2.3213e-16
294   2.7802e-16
295   5.2585e-16
296   -2.3944e-16
297   6.5825e-17
298   -1.0062e-15
299   -3.4819e-16
300   -4.7687e-16
301   -2.6763e-15
302   3.7168e-16
303   2.2597e-16
304   -2.3008e-16
305   4.2810e-16
306   -3.8964e-17
307   1.0212e-16
308   1.0553e-16
309   -3.2140e-17
310   -4.0161e-16
311   4.2776e-16
312   -4.1831e-16
313   -1.5419e-16
314   1.0375e-16
315   -7.2808e-17
316   -4.8569e-16

Decomposition over AOs for the right alpha Dyson orbital:
-4.38974049e-06
1.58374687e-06
-2.00193824e-05
-1.74170379e-05
-1.92875743e-15
-3.20343041e-05
5.47893544e-05
7.57915701e-05
4.22652974e-15
-4.74013249e-05
5.77969055e-05
-1.46141876e-04
-2.00088993e-14
-5.99776446e-04
4.05180522e-04
-1.14469305e-04
1.13769064e-13
6.39707533e-05
1.89726103e-04
-1.05980053e-04
7.54757563e-14
-4.11628465e-05
-4.96901558e-16
4.99480414e-06
1.22784067e-16
-2.45380286e-05
-6.22398574e-06
-9.63518219e-07
-3.85153975e-06
-2.89525783e-05
-2.82075470e-15
-1.62656536e-05
3.06423402e-05
7.62616906e-05
4.18570483e-15
-1.20274904e-04
-1.47700681e-04
5.38818858e-05
-1.92373555e-14
-1.25043364e-04
-1.79015407e-04
2.54999072e-05
9.99535319e-14
-3.03946364e-04
-1.75360600e-04
1.98495682e-05
1.19826313e-13
-1.94654914e-06
2.89625426e-16
1.38738880e-05
1.95888039e-16
4.99368130e-05
1.43820306e-04
2.12348271e-04
-6.93919684e-05
-8.68858581e-05
2.50638138e-15
-3.46927703e-04
-5.15709827e-04
-3.65961845e-04
-4.66944788e-15
-1.42190103e-04
5.85021702e-05
4.64231231e-05
2.31316734e-14
5.84642417e-04
2.48919018e-04
3.72730145e-05
-9.86028118e-14
7.03019247e-04
-8.56177242e-05
1.17507292e-04
-2.72513664e-14
-2.92098024e-04
6.55225763e-16
1.05223474e-04
-4.99158823e-16
-9.75227034e-06
-9.25374056e-06
-8.83333986e-08
2.50198042e-05
-2.95323674e-06
8.81931788e-16
-4.82285909e-05
-9.35084678e-05
1.43308028e-05
5.69345297e-16
-1.01957575e-04
-3.36120789e-05
1.52954431e-04
-4.29024240e-15
-8.54444434e-04
-6.44782166e-04
6.73434221e-04
4.33078534e-14
-3.32401421e-04
-3.20303347e-04
4.36705582e-04
-1.33686606e-14
-1.32080999e-05
-4.19508308e-16
5.82173175e-06
-3.52251275e-16
-2.55576102e-05
-7.22350468e-06
-1.26773895e-06
-1.83260597e-05
1.89375958e-05
-4.66995895e-16
-3.84523277e-05
5.74876963e-05
-7.41497403e-05
2.39726949e-15
1.45229340e-04
3.48660757e-05
1.10894989e-04
-9.10218866e-15
-1.20820141e-04
5.51591885e-05
1.22845693e-04
5.14001187e-14
1.63009509e-05
-1.40411283e-04
3.15889051e-05
-1.34062125e-14
4.50453783e-05
-1.67554941e-17
1.13098725e-06
-8.16677703e-16
3.65306659e-06
-3.99646136e-07
-3.11625972e-06
-1.53858314e-05
-5.34469720e-05
-1.20253839e-04
-2.07780945e-05
-1.83115546e-04
-1.51625106e-06
-5.69085742e-06
-1.67854440e-15
-4.37785271e-05
-3.76369368e-06
2.61877570e-05
2.52326500e-15
5.20481628e-04
-6.19493086e-05
-1.04839984e-04
-1.47861564e-14
1.20270778e-03
-4.67022598e-04
-3.98704686e-04
-8.52024200e-14
9.33382506e-04
-1.50636556e-04
-1.02112672e-04
-9.52049088e-14
2.84206444e-05
-4.88771753e-17
3.72651430e-07
3.79522211e-16
8.38496803e-07
1.41532676e-05
1.09644575e-04
5.46531856e-04
1.87884055e-03
4.42358906e-03
1.65920983e-03
6.01411087e-03
-6.60984376e-05
1.32692916e-04
-2.02638586e-16
-4.62127006e-04
-2.17496690e-04
4.78001909e-04
-4.79784188e-16
9.78473356e-04
1.42773653e-04
-5.50206548e-04
5.99047301e-15
-7.26745630e-05
-2.29628102e-04
-5.87470565e-04
-2.68674130e-13
2.29751065e-04
5.99263184e-04
-3.07394450e-04
-2.51306515e-14
2.56148744e-04
-1.00083331e-15
1.39322015e-05
-1.74827282e-16
2.04494393e-04
-1.10900558e-03
-8.58565642e-03
-4.28276545e-02
-1.47049381e-01
-3.47356896e-01
-1.27005256e-01
-4.64973393e-01
1.37507250e-04
3.56245724e-04
-4.11566435e-16
-2.02932162e-03
-5.04578742e-05
-3.13034468e-04
3.93787026e-15
-1.82742204e-03
4.45887727e-05
-1.89396972e-04
-1.83091447e-14
-9.35098566e-03
-4.55296563e-03
7.54444115e-04
3.95601164e-13
-1.12066842e-03
-3.10961278e-04
2.98281371e-04
-5.38685587e-14
9.86496052e-05
-8.51835755e-16
1.05774334e-04
-5.67017254e-16
-5.86765073e-05
9.16191693e-06
7.09877023e-05
3.53800669e-04
1.21667912e-03
2.86363468e-03
1.09826093e-03
3.90751490e-03
1.20764119e-04
-9.58654319e-06
-8.28669405e-16
-4.37902088e-04
5.57702297e-04
4.31240879e-06
1.97584501e-15
3.57936315e-04
-5.37489868e-04
1.19839419e-04
4.53015687e-16
1.04258307e-02
-2.98882896e-03
-8.48889442e-05
-2.88287546e-13
-4.75474851e-04
1.68647132e-05
-4.54490204e-04
6.68426177e-14
-7.85287098e-06
-1.66745303e-16
3.86938736e-05
-1.16671574e-15
-3.20391588e-04
-4.28960892e-07
-3.33380759e-06
-1.65428361e-05
-5.70683254e-05
-1.29435266e-04
-6.50517672e-06
-1.97792121e-04
5.41497951e-06
-1.48477103e-05
1.63947851e-15
-1.27780849e-04
-9.34597318e-05
6.43212328e-05
-1.03096220e-15
5.77848183e-04
2.31730610e-04
1.02543088e-04
6.81312085e-15
-1.30915561e-03
-4.22621962e-04
-1.36479386e-04
7.17843926e-15
3.44603637e-04
5.31214329e-05
2.65062658e-05
4.21535037e-14
9.03166445e-05
2.04064812e-16
-1.19537876e-05
-4.21048222e-16
3.08384086e-07
-1.38268874e-05
-3.73251598e-05
-3.02432083e-04
-7.50973390e-04
-1.77704767e-05
1.63271929e-05
2.08124655e-16
-1.85645969e-05
-5.80389243e-05
1.54136934e-04
-2.07527447e-04
-3.62310266e-05
-7.37486507e-06
3.86058804e-16
-2.98131141e-06
-5.03260658e-05
9.67354440e-05
3.83609770e-04
7.97720028e-06
1.21493089e-05
-5.28746615e-16
-5.14812107e-06
-6.24172116e-06
1.20604340e-04
-1.18091419e-05
-4.60434593e-06
-1.26584248e-05
-9.24392595e-17
-7.66745898e-06
-5.66264291e-05
5.63814270e-05
2.25879233e-04
1.91683717e-05
-3.53770573e-06
9.90848237e-16
   *****

     End transition


 Reference -- EOM-IP-CCSD state  2/A'   transition
 Energy difference = 292.9359 eV.

 Left Dyson orbital norm is 0.920254

Left alpha Dyson orbital in the MO basis (canonical Q-Chem's ordering):
0     -3.0323e-07
1     -3.0885e-07
2     1.4205e-07
3     4.3113e-05
4     -4.1391e-05
5     -3.0669e-04
6     -4.3663e-05
7     1.7416e-03
8     1.0000e+00
9     1.5850e-04
10    3.1407e-16
11    1.1512e-16
12    -2.3426e-16
13    3.9451e-17
14    -7.9945e-17
15    2.0932e-16
16    6.5113e-17
17    3.8082e-17
18    -2.9896e-16
19    -9.1482e-17
20    -7.5420e-17
21    -1.5222e-18
22    3.1741e-16
23    -1.5816e-16
24    3.4555e-16
25    -1.3490e-16
26    -5.5816e-17
27    3.5738e-17
28    -1.7587e-16
29    -3.5225e-17
30    2.2300e-16
31    -8.1703e-17
32    -1.5216e-16
33    -2.7536e-17
34    -5.4585e-17
35    -4.2981e-16
36    -3.0654e-15
37    1.1368e-15
38    5.3133e-17
39    6.3761e-15
40    4.8295e-15
41    -1.2893e-16
42    -9.6830e-16
43    -4.8099e-15
44    -1.7159e-15
45    -1.4383e-15
46    8.3167e-15
47    5.1992e-15
48    7.1548e-15
49    -1.6498e-15
50    2.5583e-15
51    -2.5980e-14
52    -5.1283e-15
53    -3.1221e-14
54    -5.0578e-15
55    -2.8502e-15
56    4.6342e-16
57    1.1020e-15
58    -3.4613e-15
59    -1.2431e-15
60    -4.2591e-15
61    3.3867e-15
62    1.0730e-15
63    -3.3725e-15
64    -6.1469e-15
65    -6.0828e-15
66    1.2536e-14
67    8.0461e-15
68    1.1928e-14
69    1.8643e-15
70    -8.7284e-15
71    -8.1077e-15
72    1.5319e-14
73    -2.5253e-14
74    -3.3520e-16
75    -6.2684e-15
76    1.2800e-14
77    7.7004e-15
78    -5.2806e-16
79    -1.5348e-14
80    9.1388e-16
81    4.0460e-15
82    3.3677e-15
83    1.0145e-14
84    -2.3871e-14
85    1.1991e-15
86    -1.4983e-14
87    -5.7114e-15
88    -6.2304e-15
89    2.0585e-15
90    -2.2693e-15
91    -1.8731e-14
92    -3.6596e-15
93    -3.1006e-15
94    4.9067e-15
95    6.7972e-15
96    2.4134e-15
97    -4.2226e-16
98    -2.3118e-15
99    4.1588e-15
100   -1.2602e-14
101   -7.6214e-15
102   -8.3778e-15
103   2.4996e-15
104   -1.2694e-15
105   2.8919e-15
106   -1.5674e-14
107   1.9432e-14
108   9.0586e-15
109   -4.3282e-15
110   -1.6388e-14
111   2.9782e-15
112   9.7084e-15
113   9.2805e-16
114   -2.2754e-15
115   -7.2599e-15
116   -3.0077e-14
117   -1.0328e-14
118   5.1298e-15
119   -3.2397e-15
120   -9.7025e-15
121   5.6322e-16
122   5.6922e-16
123   5.3091e-15
124   6.7116e-15
125   -1.8763e-15
126   -2.4122e-15
127   2.9819e-15
128   -1.0810e-14
129   -3.0063e-15
130   -1.3312e-14
131   6.7864e-16
132   6.1663e-17
133   -4.4261e-16
134   -7.3647e-15
135   -5.0331e-16
136   -1.2550e-14
137   -2.1737e-16
138   -1.3596e-15
139   -5.5089e-17
140   -2.1522e-16
141   1.7999e-15
142   -3.9418e-16
143   1.4975e-14
144   -8.1176e-16
145   -8.7282e-15
146   2.9622e-15
147   8.3166e-16
148   -6.3043e-16
149   -1.0830e-14
150   5.1945e-15
151   2.9595e-15
152   -2.2919e-15
153   6.0266e-15
154   -9.0426e-16
155   -2.4903e-16
156   6.0362e-15
157   2.9268e-15
158   6.3086e-15
159   -2.4663e-15
160   1.2790e-16
161   -1.0046e-15
162   1.1863e-15
163   -6.8650e-15
164   5.1858e-15
165   9.6226e-18
166   -6.1788e-16
167   -2.8676e-15
168   -2.0112e-15
169   -2.2073e-15
170   -8.9895e-16
171   2.9201e-15
172   1.7590e-15
173   -1.3538e-15
174   -9.4884e-16
175   -2.0588e-15
176   -1.1284e-15
177   2.1776e-16
178   1.7260e-15
179   -9.8804e-17
180   -7.3109e-17
181   -2.0174e-16
182   -4.5447e-15
183   -3.9043e-16
184   -2.3838e-15
185   1.2427e-15
186   -2.1661e-16
187   7.4170e-17
188   -8.0578e-16
189   3.3037e-15
190   -5.8193e-15
191   -2.0198e-15
192   5.2170e-15
193   4.3045e-15
194   -4.3111e-16
195   1.1743e-15
196   -4.0308e-15
197   -1.3862e-16
198   5.0205e-15
199   6.3303e-15
200   6.1224e-16
201   1.1534e-15
202   2.1559e-15
203   8.6699e-17
204   2.0787e-15
205   -1.7981e-15
206   -3.9630e-16
207   -1.7446e-15
208   6.0127e-16
209   5.5491e-16
210   9.9367e-16
211   -9.0021e-17
212   2.6722e-15
213   -1.3538e-15
214   -1.0097e-15
215   -1.6757e-16
216   1.1207e-15
217   -3.6196e-15
218   -2.4517e-16
219   -2.7587e-16
220   -6.0615e-16
221   -1.8341e-15
222   7.2558e-16
223   2.1656e-15
224   -3.1217e-16
225   8.3430e-17
226   3.5091e-16
227   -1.4582e-15
228   3.6381e-15
229   -9.4744e-17
230   1.2463e-15
231   -3.7006e-15
232   7.2644e-16
233   9.2895e-18
234   4.6661e-15
235   1.6290e-15
236   -1.3375e-16
237   -3.3866e-15
238   1.4916e-15
239   -1.0588e-15
240   1.5085e-16
241   2.9455e-16
242   3.6196e-16
243   4.0369e-15
244   -4.9906e-16
245   -8.8422e-16
246   -2.0879e-15
247   2.7564e-16
248   1.2248e-15
249   3.5983e-15
250   2.1739e-15
251   1.7684e-16
252   -4.2614e-16
253   3.8333e-16
254   -2.0596e-15
255   -3.2723e-16
256   -4.5796e-16
257   -2.1774e-15
258   3.1311e-15
259   -2.5166e-15
260   9.6466e-16
261   3.0798e-15
262   -1.9378e-15
263   -2.7096e-16
264   -9.2170e-16
265   1.2743e-15
266   -7.2063e-16
267   4.8244e-16
268   -6.9984e-16
269   -9.6336e-16
270   1.6505e-15
271   6.9509e-16
272   1.2105e-15
273   -3.9639e-15
274   1.1196e-15
275   8.1755e-16
276   1.1607e-15
277   -1.0117e-15
278   3.4745e-16
279   -1.0528e-15
280   -8.8915e-16
281   -5.9583e-16
282   2.3889e-15
283   -5.6977e-16
284   1.5615e-16
285   -1.2474e-15
286   -1.2631e-15
287   -1.3521e-15
288   -1.0521e-15
289   7.0214e-16
290   -9.4302e-18
291   -6.2082e-16
292   -3.8102e-16
293   2.0034e-16
294   1.6626e-16
295   -1.0607e-15
296   6.9443e-16
297   -1.1487e-15
298   -4.5825e-16
299   -2.4007e-15
300   -2.5276e-16
301   5.1654e-16
302   1.6484e-16
303   4.4123e-16
304   2.6195e-16
305   -1.3361e-16
306   -3.4080e-16
307   -1.8473e-16
308   -1.1039e-16
309   -3.1557e-17
310   -4.9646e-16
311   2.7661e-16
312   -8.0023e-17
313   -1.1091e-16
314   -2.5353e-16
315   5.1468e-17
316   1.1544e-16

Decomposition over AOs for the left alpha Dyson orbital:
1.84034669e-04
2.59883239e-04
7.68808304e-05
-1.03948068e-04
1.16482516e-15
-3.96908763e-04
2.89108958e-04
-6.12432067e-04
-2.43823694e-15
-2.25256533e-04
-8.14405819e-06
1.80002683e-04
1.04409855e-14
1.17466009e-04
6.61541471e-05
-3.50173156e-05
-6.87471999e-14
3.30415829e-04
-4.36558390e-05
-2.02122600e-04
-3.93172205e-14
2.92098674e-04
-2.27849098e-16
9.36181985e-05
2.42644552e-16
9.32227598e-05
1.92698434e-04
2.67047661e-04
-1.35129631e-04
3.67545792e-05
1.21634322e-15
-3.79641354e-04
-6.51827801e-04
5.50075218e-05
-1.84679573e-15
-4.13160342e-04
1.48870172e-04
1.43921729e-04
7.67472570e-15
-4.04475335e-04
-2.23492333e-04
3.34264927e-05
-5.13214015e-14
-5.96233248e-04
-2.53976066e-04
-2.38806368e-05
-8.81813912e-14
1.57336754e-04
1.20279036e-16
9.15219346e-05
-4.83492450e-18
-2.60116751e-04
2.04090904e-07
1.96183842e-07
-3.05722376e-07
2.19578074e-06
-1.40518631e-15
1.38998089e-05
3.62610476e-06
-1.17325143e-05
3.96988101e-15
-3.17119946e-04
-8.24599380e-05
-7.21122121e-05
-1.28942909e-14
-2.74468034e-04
-7.41690860e-05
-6.81191961e-05
6.32890918e-14
-3.23191495e-04
-2.04757182e-05
-1.70620691e-05
-4.94299916e-14
-2.28862270e-07
-6.67077779e-17
2.77331636e-06
2.40740088e-16
-3.72295599e-06
1.21789473e-06
6.23529908e-06
5.06625410e-06
3.68236367e-06
-7.21881781e-16
-4.75231020e-05
-4.51290689e-05
-1.77933890e-05
1.70932822e-16
3.27036694e-04
1.79668682e-04
7.89534977e-06
4.90011914e-15
4.32563352e-04
-4.07207498e-05
7.83042543e-05
-3.10054549e-14
3.66100535e-04
8.81127428e-05
5.29977252e-05
4.89565539e-14
-1.46670960e-05
4.01648931e-16
-1.21517686e-06
-2.51331195e-16
-1.18459448e-05
1.11584853e-06
6.79505273e-06
-1.43007038e-06
6.43030934e-06
3.86147896e-16
-5.36470687e-05
1.55941053e-05
-5.18814122e-05
-2.17052671e-15
3.63317919e-04
-1.59925051e-04
1.09517954e-04
6.48066246e-15
3.47792260e-04
-1.53128403e-04
4.92815260e-06
-3.63459058e-14
1.85899610e-04
-8.85915045e-05
-4.77084280e-05
3.66959063e-14
9.53718433e-06
1.77308058e-16
-4.32871790e-06
-2.27716541e-17
1.28282887e-05
-1.10943914e-03
-8.58878250e-03
-4.28451619e-02
-1.47098021e-01
-3.47507749e-01
-1.26609589e-01
-4.65375464e-01
1.78873210e-04
3.45538040e-04
7.07379099e-16
-1.59164775e-03
-2.11100840e-05
-1.17351098e-04
-1.77998369e-15
-6.83881424e-04
4.12462459e-04
6.84134141e-04
8.91874400e-15
4.56706295e-04
-3.77330928e-04
-2.95988166e-04
4.64356971e-14
1.25346537e-03
-1.82587770e-04
-1.52732640e-04
1.07754390e-13
1.14243487e-05
-3.73341390e-16
1.91988652e-04
-2.52839207e-16
-2.43658857e-05
-2.54263270e-06
-1.97023511e-05
-9.81583174e-05
-3.37437452e-04
-7.90543264e-04
-2.45322730e-04
-1.08721662e-03
6.09557139e-06
1.92852310e-05
3.01253130e-16
-1.14269715e-04
-5.17364305e-05
-1.03793552e-04
2.08860119e-16
5.55678349e-04
8.62900152e-04
4.04229847e-04
-2.00365112e-15
-1.04848392e-03
2.81916303e-04
4.68303631e-06
1.53081064e-13
-4.09000239e-04
2.94755793e-04
-3.51174440e-05
-1.08181038e-13
-5.49872697e-05
1.02662133e-15
-3.31942692e-07
-1.63338124e-16
5.21865512e-05
3.59404609e-07
2.74911406e-06
1.39530301e-05
4.69736765e-05
1.19748869e-04
7.83273521e-05
1.29047567e-04
1.44197019e-05
9.35482066e-06
4.52075477e-16
-7.14129747e-05
-8.16452216e-05
-4.26499272e-05
-1.24433126e-15
-5.60426533e-06
-2.20667838e-04
-4.65582751e-04
1.04262986e-14
2.46313292e-04
-7.25740333e-05
1.29890404e-04
-2.34913841e-13
-7.47938926e-04
-3.16328699e-04
-2.95996886e-04
2.98324212e-13
-1.57458686e-05
9.38411797e-16
5.89638857e-06
4.40726847e-17
1.08815488e-06
-6.08215104e-07
-4.72257482e-06
-2.34638442e-05
-8.08728982e-05
-1.85670247e-04
-3.11955224e-05
-2.72973529e-04
1.82651673e-05
1.92572772e-05
8.95159507e-16
-8.61650475e-05
-8.82786986e-05
-1.01752745e-04
-1.96732679e-15
2.24852309e-04
-1.44780578e-05
7.61192492e-04
6.90390613e-16
-7.08912765e-04
-6.04352262e-05
-1.27049160e-04
1.76226212e-13
-4.66708774e-04
9.01344399e-05
1.71141819e-05
-2.05146476e-13
-7.70829203e-05
1.64353503e-16
-2.83326941e-06
5.24523735e-16
4.07690634e-05
7.30709549e-08
5.52169382e-07
2.85276020e-06
9.41035709e-06
2.56888157e-05
2.22143214e-05
2.26791203e-05
-3.28347140e-07
4.98965338e-06
-4.79599170e-16
-4.14957258e-05
3.05592917e-06
-2.61925954e-05
1.24917962e-15
1.20215483e-04
1.71007948e-04
1.03339902e-04
-4.20444732e-15
1.53513402e-04
2.95858973e-04
1.01241376e-04
5.72807752e-15
3.66366538e-04
3.24656346e-05
1.33042020e-04
-4.97949232e-14
-9.49495379e-06
-3.30678081e-16
-6.48183364e-06
3.66993842e-16
1.13546245e-05
-3.12681056e-06
3.31677407e-07
-4.38710479e-05
-1.02157338e-04
-1.11531415e-05
2.41913247e-06
-9.27107371e-16
-5.26522480e-06
3.54936817e-05
1.19265539e-04
2.47610711e-04
4.07895671e-06
-1.64895040e-06
-3.51601719e-16
-3.66106370e-04
-5.24978871e-04
-1.90587070e-04
6.79851737e-04
1.84511875e-04
2.55226241e-04
1.68781862e-16
-1.32948874e-06
-4.80676157e-05
-2.97233214e-05
-1.77730642e-04
-2.90979153e-06
-1.60863747e-05
8.26610402e-17
-3.21731969e-06
-1.81329739e-06
1.13929646e-04
8.26636932e-06
6.57998732e-06
-4.27801325e-06
-2.18594925e-16
   *****

 Right Dyson orbital norm is 0.950328

Right alpha Dyson orbital in the MO basis (canonical Q-Chem's ordering):
0     -2.3475e-07
1     -2.4893e-07
2     1.5285e-07
3     3.8047e-05
4     -3.6398e-05
5     -3.1571e-04
6     -5.0350e-05
7     1.8544e-03
8     1.0000e+00
[...]
1.99332379e-06
3.06422617e-16
1.36097566e-05
3.55775848e-05
-1.00862036e-05
8.23590839e-16
3.75436679e-04
1.81978615e-05
-4.18204046e-06
7.32370558e-15
8.06396770e-04
2.44247011e-04
-1.40498818e-04
-4.35472361e-14
4.30042610e-04
3.70897795e-05
-3.68701643e-04
3.00805062e-14
-1.59339925e-06
-7.04017632e-17
-4.54437012e-06
2.77118716e-16
1.05154897e-05
-1.66988460e-04
-2.49313811e-04
-5.37891366e-05
9.06575433e-05
5.97756556e-16
4.38942529e-04
-3.59840690e-04
6.88996502e-04
-3.27394311e-15
-9.81151739e-05
1.40773508e-04
-2.53288375e-05
9.62404857e-15
-1.06668738e-03
-8.08395647e-05
-3.66267879e-04
-5.71715421e-14
-5.24465952e-04
3.74728535e-04
-2.86422826e-04
4.40562273e-15
-2.95310753e-04
-1.21090638e-16
-8.84287112e-05
5.28775041e-16
-1.92303563e-04
-6.00411701e-07
-4.59444774e-06
-2.33048316e-05
-7.85442181e-05
-2.00554490e-04
-1.38894312e-04
-2.13620173e-04
-8.48994069e-06
2.92819737e-05
1.67784972e-15
1.33935812e-04
3.92028650e-05
-1.61251773e-04
-5.72036228e-15
-1.97632725e-04
-7.28664891e-05
1.21947328e-04
1.90439749e-14
-4.49505137e-06
3.45152540e-04
-8.25274335e-06
8.27799193e-14
-1.49934326e-03
6.92547964e-05
2.80027008e-04
9.76834788e-14
-6.93909593e-05
6.67043243e-17
-2.66814595e-06
-1.25515948e-16
-5.81727687e-05
1.38473984e-07
1.12181765e-06
5.23713817e-06
1.93593548e-05
3.22331481e-05
-4.63710845e-05
9.15602855e-05
-2.09932062e-05
1.68470931e-05
1.53255963e-15
1.39112849e-04
1.09045083e-04
-1.17992769e-04
3.49339566e-16
-5.65613378e-04
3.41251757e-04
4.38563410e-04
-1.10078101e-15
-2.93650157e-04
3.67714797e-04
4.24093575e-04
2.85233972e-13
-7.72727394e-05
-6.98121996e-04
4.30292906e-05
-1.31309582e-14
-8.96496768e-05
6.09615310e-16
-3.63051418e-06
-6.56926892e-16
-2.36156463e-05
8.70844310e-06
6.73558178e-05
3.36330731e-04
1.15278037e-03
2.73539392e-03
9.66420677e-04
3.58164334e-03
1.08334538e-04
-4.21763531e-06
2.20265030e-15
3.98061473e-04
5.05905421e-04
-1.61408783e-04
-2.11753695e-15
-9.52432778e-04
-1.88054008e-03
1.79807334e-04
2.20416534e-14
1.21394927e-02
4.56760358e-03
2.23466814e-04
-4.30111010e-13
1.69686997e-03
5.46088606e-04
-2.79906762e-04
9.19533684e-14
-4.86329022e-05
9.42592810e-16
-1.94356845e-05
1.86511608e-17
2.64151058e-04
1.10940062e-03
8.58849320e-03
4.28436875e-02
1.47093910e-01
3.47499030e-01
1.26596231e-01
4.65345653e-01
5.28128303e-04
-3.70004831e-04
1.58469811e-15
1.61962465e-03
-4.40135906e-04
3.91421458e-04
-3.18701361e-15
2.85623235e-03
-6.80074508e-04
-1.44767046e-04
2.92547176e-15
-1.21554564e-02
4.39348618e-03
-1.40984142e-03
3.15560201e-13
7.17286586e-04
3.29544689e-06
9.33764219e-04
-7.55047617e-14
6.59815838e-05
9.93266624e-17
-2.68641927e-04
9.02574791e-16
9.74657519e-05
-7.40668385e-08
-5.38745629e-07
-2.94095325e-06
-9.12072106e-06
-3.05924023e-05
-4.75675717e-05
-1.06163735e-05
1.45577607e-07
2.84854976e-06
3.59617098e-16
1.27855319e-04
3.18801236e-05
-2.16809818e-05
3.53966668e-15
-2.35869669e-04
-3.41727168e-04
-2.69993943e-04
-4.31224345e-16
1.62664830e-03
3.65139407e-04
-7.84262376e-05
-1.03365892e-14
-7.83555845e-04
-9.89233135e-05
-1.98326663e-04
-4.79313879e-14
-1.42277259e-05
-4.67865966e-16
8.84427982e-06
1.23944788e-15
6.22613860e-06
6.07496450e-06
-5.83892695e-05
1.03278773e-05
2.62489153e-04
-4.16517515e-06
7.00128991e-06
1.09544723e-16
1.22265123e-05
-9.35102385e-05
-2.03621008e-04
8.91194286e-05
-8.99790869e-06
2.51526883e-07
-4.29825642e-17
1.32805440e-05
7.65296267e-05
-1.14097907e-04
-1.66484477e-04
-8.75887768e-06
-3.28567962e-05
6.40297188e-17
2.64616785e-05
1.42841868e-04
-1.40117978e-04
-2.26122766e-04
3.60460137e-05
8.24699096e-05
1.36907805e-16
3.28231644e-05
3.56856413e-05
3.86017117e-05
-6.48292418e-04
-7.18930714e-05
5.85525682e-06
-8.98388948e-16
   *****

     End transition

 Dyson orbitals calculation:   CPU 2.64 s  wall 1.62 s

 Total ccman2 time:   CPU 7503.58 s  wall 2852.49 s


 --------------------------------------------------------------
             Orbital Energies (a.u.) and Symmetries
 --------------------------------------------------------------

 Alpha MOs, Restricted
 -- Occupied --                  
-15.633 -15.585 -15.571 -15.558 -15.551 -11.343 -11.328 -11.322
  1 A'    2 A'    3 A'    4 A'    5 A'    6 A'    7 A'    8 A'                 
-11.314 -11.257  -1.374  -1.307  -1.253  -1.192  -1.157  -1.040
  9 A'   10 A'   11 A'   12 A'   13 A'   14 A'   15 A'   16 A'                 
 -0.901  -0.882  -0.849  -0.785  -0.745  -0.703  -0.683  -0.641
 17 A'   18 A'   19 A'   20 A'   21 A'   22 A'   23 A'    1 A"                 
 -0.639  -0.619  -0.597  -0.561  -0.500  -0.497  -0.452  -0.426
 24 A'   25 A'   26 A'    2 A"    3 A"   27 A'   28 A'    4 A"                 
 -0.411  -0.375  -0.312
 29 A'    5 A"    6 A"                                                         
 -- Virtual --                   
  0.010   0.016   0.021   0.024   0.028   0.029   0.033   0.036
 30 A'   31 A'   32 A'    7 A"   33 A'   34 A'    8 A"    9 A"                 
  0.037   0.041   0.042   0.049   0.052   0.052   0.055   0.057
 35 A'   36 A'   37 A'   38 A'   10 A"   39 A'   40 A'   11 A"                 
  0.059   0.061   0.065   0.071   0.080   0.081   0.082   0.082
 41 A'   42 A'   43 A'   44 A'   45 A'   12 A"   13 A"   46 A'                 
  0.091   0.091   0.092   0.099   0.100   0.102   0.103   0.104
 14 A"   47 A'   48 A'   49 A'   15 A"   50 A'   16 A"   51 A'                 
  0.107   0.112   0.116   0.118   0.123   0.131   0.138   0.141
 52 A'   53 A'   17 A"   54 A'   55 A'   56 A'   57 A'   18 A"                 
  0.149   0.150   0.159   0.164   0.180   0.199   0.203   0.210
 58 A'   59 A'   60 A'   19 A"   61 A'   62 A'   63 A'   20 A"                 
  0.212   0.215   0.222   0.226   0.226   0.231   0.233   0.234
 64 A'   65 A'   21 A"   66 A'   22 A"   67 A'   23 A"   68 A'                 
  0.238   0.242   0.248   0.262   0.268   0.284   0.287   0.293
 69 A'   24 A"   70 A'   71 A'   72 A'   73 A'   74 A'   25 A"                 
  0.303   0.309   0.323   0.333   0.335   0.339   0.339   0.346
 26 A"   75 A'   76 A'   77 A'   27 A"   78 A'   28 A"   79 A'                 
  0.351   0.363   0.368   0.371   0.385   0.390   0.401   0.414
 80 A'   81 A'   29 A"   82 A'   83 A'   84 A'   85 A'   86 A'                 
  0.416   0.420   0.429   0.439   0.457   0.460   0.472   0.474
 30 A"   87 A'   88 A'   89 A'   90 A'   91 A'   92 A'   93 A'                 
  0.477   0.494   0.504   0.517   0.536   0.550   0.575   0.587
 94 A'   95 A'   96 A'   97 A'   98 A'   99 A'  100 A'  101 A'                 
  0.614   0.646   0.664   0.693   0.724   0.769   0.773   0.775
102 A'  103 A'  104 A'  105 A'  106 A'  107 A'  108 A'   31 A"                 
  0.787   0.805   0.813   0.821   0.834   0.870   0.888   0.914
 32 A"  109 A'   33 A"   34 A"  110 A'   35 A"  111 A'  112 A'                 
  0.935   0.959   0.984   0.999   1.029   1.037   1.052   1.063
113 A'  114 A'  115 A'  116 A'  117 A'  118 A'  119 A'   36 A"                 
  1.078   1.085   1.096   1.113   1.120   1.127   1.136   1.140
 37 A"  120 A'  121 A'  122 A'  123 A'  124 A'   38 A"   39 A"                 
  1.142   1.152   1.173   1.184   1.207   1.226   1.233   1.240
125 A'  126 A'  127 A'  128 A'   40 A"  129 A'  130 A'   41 A"                 
  1.247   1.269   1.298   1.304   1.312   1.350   1.368   1.400
131 A'  132 A'  133 A'   42 A"  134 A'  135 A'   43 A"  136 A'                 
  1.407   1.414   1.450   1.455   1.485   1.555   1.565   1.577
 44 A"   45 A"   46 A"  137 A'   47 A"  138 A'  139 A'   48 A"                 
  1.648   1.668   1.682   1.761   1.791   1.806   1.834   1.884
 49 A"  140 A'  141 A'  142 A'  143 A'  144 A'  145 A'  146 A'                 
  1.888   1.945   1.949   1.991   2.005   2.017   2.026   2.056
 50 A"  147 A'   51 A"  148 A'  149 A'   52 A"  150 A'  151 A'                 
  2.084   2.085   2.122   2.137   2.152   2.202   2.225   2.236
 53 A"  152 A'  153 A'   54 A"  154 A'  155 A'   55 A"  156 A'                 
  2.302   2.334   2.456   2.479   2.489   2.490   2.518   2.564
157 A'  158 A'  159 A'  160 A'   56 A"  161 A'  162 A'   57 A"                 
  2.598   2.612   2.622   2.656   2.726   2.743   2.801   2.863
 58 A"  163 A'  164 A'   59 A"  165 A'   60 A"   61 A"   62 A"                 
  2.888   2.902   2.905   2.944   2.985   2.990   2.998   3.016
166 A'  167 A'   63 A"  168 A'  169 A'  170 A'   64 A"  171 A'                 
  3.076   3.115   3.122   3.150   3.184   3.210   3.214   3.225
172 A'   65 A"  173 A'  174 A'  175 A'  176 A'  177 A'   66 A"                 
  3.246   3.271   3.279   3.287   3.293   3.316   3.371   3.389
178 A'   67 A"   68 A"  179 A'   69 A"  180 A'  181 A'  182 A'                 
  3.396   3.466   3.509   3.693   3.734   3.809   3.897   3.919
 70 A"  183 A'  184 A'  185 A'  186 A'  187 A'  188 A'  189 A'                 
  3.965   4.023   4.078   4.107   4.146   4.188   4.286   4.341
190 A'  191 A'  192 A'  193 A'  194 A'  195 A'  196 A'   71 A"                 
  4.362   4.423   4.440   4.461   4.535   4.806   4.915   5.032
 72 A"   73 A"   74 A"   75 A"  197 A'  198 A'  199 A'  200 A'                 
  5.056   5.256   5.298   5.444   5.535   5.584   5.699   5.766
201 A'  202 A'  203 A'  204 A'  205 A'  206 A'  207 A'  208 A'                 
  5.810   5.853   5.878   6.077  20.697  20.755  20.807  20.888
209 A'  210 A'  211 A'  212 A'  213 A'  214 A'  215 A'  216 A'                 
 20.979  37.022  37.073  37.115  37.171  37.195  80.257  80.300
217 A'  218 A'  219 A'  220 A'  221 A'  222 A'  223 A'  224 A'                 
 80.343  80.405  80.492 322.085 322.117 322.155 322.204 322.287
225 A'  226 A'  227 A'  228 A'  229 A'  230 A'  231 A'  232 A'                 
*******1431.6651431.6991431.7411431.8178749.8668749.8818749.912
233 A'  234 A'  235 A'  236 A'  237 A'  238 A'  239 A'  240 A'                 
*******8750.016
241 A'  242 A'                                                                 

 Beta MOs, Restricted
 -- Occupied --                  
-15.633 -15.585 -15.571 -15.558 -15.551 -11.343 -11.328 -11.322
  1 A'    2 A'    3 A'    4 A'    5 A'    6 A'    7 A'    8 A'                 
-11.314 -11.257  -1.374  -1.307  -1.253  -1.192  -1.157  -1.040
  9 A'   10 A'   11 A'   12 A'   13 A'   14 A'   15 A'   16 A'                 
 -0.901  -0.882  -0.849  -0.785  -0.745  -0.703  -0.683  -0.641
 17 A'   18 A'   19 A'   20 A'   21 A'   22 A'   23 A'    1 A"                 
 -0.639  -0.619  -0.597  -0.561  -0.500  -0.497  -0.452  -0.426
 24 A'   25 A'   26 A'    2 A"    3 A"   27 A'   28 A'    4 A"                 
 -0.411  -0.375  -0.312
 29 A'    5 A"    6 A"                                                         
 -- Virtual --                   
  0.010   0.016   0.021   0.024   0.028   0.029   0.033   0.036
 30 A'   31 A'   32 A'    7 A"   33 A'   34 A'    8 A"    9 A"                 
  0.037   0.041   0.042   0.049   0.052   0.052   0.055   0.057
 35 A'   36 A'   37 A'   38 A'   10 A"   39 A'   40 A'   11 A"                 
  0.059   0.061   0.065   0.071   0.080   0.081   0.082   0.082
 41 A'   42 A'   43 A'   44 A'   45 A'   12 A"   13 A"   46 A'                 
  0.091   0.091   0.092   0.099   0.100   0.102   0.103   0.104
 14 A"   47 A'   48 A'   49 A'   15 A"   50 A'   16 A"   51 A'                 
  0.107   0.112   0.116   0.118   0.123   0.131   0.138   0.141
 52 A'   53 A'   17 A"   54 A'   55 A'   56 A'   57 A'   18 A"                 
  0.149   0.150   0.159   0.164   0.180   0.199   0.203   0.210
 58 A'   59 A'   60 A'   19 A"   61 A'   62 A'   63 A'   20 A"                 
  0.212   0.215   0.222   0.226   0.226   0.231   0.233   0.234
 64 A'   65 A'   21 A"   66 A'   22 A"   67 A'   23 A"   68 A'                 
  0.238   0.242   0.248   0.262   0.268   0.284   0.287   0.293
 69 A'   24 A"   70 A'   71 A'   72 A'   73 A'   74 A'   25 A"                 
  0.303   0.309   0.323   0.333   0.335   0.339   0.339   0.346
 26 A"   75 A'   76 A'   77 A'   27 A"   78 A'   28 A"   79 A'                 
  0.351   0.363   0.368   0.371   0.385   0.390   0.401   0.414
 80 A'   81 A'   29 A"   82 A'   83 A'   84 A'   85 A'   86 A'                 
  0.416   0.420   0.429   0.439   0.457   0.460   0.472   0.474
 30 A"   87 A'   88 A'   89 A'   90 A'   91 A'   92 A'   93 A'                 
  0.477   0.494   0.504   0.517   0.536   0.550   0.575   0.587
 94 A'   95 A'   96 A'   97 A'   98 A'   99 A'  100 A'  101 A'                 
  0.614   0.646   0.664   0.693   0.724   0.769   0.773   0.775
102 A'  103 A'  104 A'  105 A'  106 A'  107 A'  108 A'   31 A"                 
  0.787   0.805   0.813   0.821   0.834   0.870   0.888   0.914
 32 A"  109 A'   33 A"   34 A"  110 A'   35 A"  111 A'  112 A'                 
  0.935   0.959   0.984   0.999   1.029   1.037   1.052   1.063
113 A'  114 A'  115 A'  116 A'  117 A'  118 A'  119 A'   36 A"                 
  1.078   1.085   1.096   1.113   1.120   1.127   1.136   1.140
 37 A"  120 A'  121 A'  122 A'  123 A'  124 A'   38 A"   39 A"                 
  1.142   1.152   1.173   1.184   1.207   1.226   1.233   1.240
125 A'  126 A'  127 A'  128 A'   40 A"  129 A'  130 A'   41 A"                 
  1.247   1.269   1.298   1.304   1.312   1.350   1.368   1.400
131 A'  132 A'  133 A'   42 A"  134 A'  135 A'   43 A"  136 A'                 
  1.407   1.414   1.450   1.455   1.485   1.555   1.565   1.577
 44 A"   45 A"   46 A"  137 A'   47 A"  138 A'  139 A'   48 A"                 
  1.648   1.668   1.682   1.761   1.791   1.806   1.834   1.884
 49 A"  140 A'  141 A'  142 A'  143 A'  144 A'  145 A'  146 A'                 
  1.888   1.945   1.949   1.991   2.005   2.017   2.026   2.056
 50 A"  147 A'   51 A"  148 A'  149 A'   52 A"  150 A'  151 A'                 
  2.084   2.085   2.122   2.137   2.152   2.202   2.225   2.236
 53 A"  152 A'  153 A'   54 A"  154 A'  155 A'   55 A"  156 A'                 
  2.302   2.334   2.456   2.479   2.489   2.490   2.518   2.564
157 A'  158 A'  159 A'  160 A'   56 A"  161 A'  162 A'   57 A"                 
  2.598   2.612   2.622   2.656   2.726   2.743   2.801   2.863
 58 A"  163 A'  164 A'   59 A"  165 A'   60 A"   61 A"   62 A"                 
  2.888   2.902   2.905   2.944   2.985   2.990   2.998   3.016
166 A'  167 A'   63 A"  168 A'  169 A'  170 A'   64 A"  171 A'                 
  3.076   3.115   3.122   3.150   3.184   3.210   3.214   3.225
172 A'   65 A"  173 A'  174 A'  175 A'  176 A'  177 A'   66 A"                 
  3.246   3.271   3.279   3.287   3.293   3.316   3.371   3.389
178 A'   67 A"   68 A"  179 A'   69 A"  180 A'  181 A'  182 A'                 
  3.396   3.466   3.509   3.693   3.734   3.809   3.897   3.919
 70 A"  183 A'  184 A'  185 A'  186 A'  187 A'  188 A'  189 A'                 
  3.965   4.023   4.078   4.107   4.146   4.188   4.286   4.341
190 A'  191 A'  192 A'  193 A'  194 A'  195 A'  196 A'   71 A"                 
  4.362   4.423   4.440   4.461   4.535   4.806   4.915   5.032
 72 A"   73 A"   74 A"   75 A"  197 A'  198 A'  199 A'  200 A'                 
  5.056   5.256   5.298   5.444   5.535   5.584   5.699   5.766
201 A'  202 A'  203 A'  204 A'  205 A'  206 A'  207 A'  208 A'                 
  5.810   5.853   5.878   6.077  20.697  20.755  20.807  20.888
209 A'  210 A'  211 A'  212 A'  213 A'  214 A'  215 A'  216 A'                 
 20.979  37.022  37.073  37.115  37.171  37.195  80.257  80.300
217 A'  218 A'  219 A'  220 A'  221 A'  222 A'  223 A'  224 A'                 
 80.343  80.405  80.492 322.085 322.117 322.155 322.204 322.287
225 A'  226 A'  227 A'  228 A'  229 A'  230 A'  231 A'  232 A'                 
*******1431.6651431.6991431.7411431.8178749.8668749.8818749.912
233 A'  234 A'  235 A'  236 A'  237 A'  238 A'  239 A'  240 A'                 
*******8750.016
241 A'  242 A'                                                                 
 --------------------------------------------------------------

          Ground-State Mulliken Net Atomic Charges

     Atom                 Charge (a.u.)
  ----------------------------------------
      1 N                    -0.177775
      2 N                    -0.163445
      3 N                    -0.195864
      4 N                    -0.241155
      5 N                    -0.259593
      6 C                    -0.044860
      7 C                    -0.332523
      8 C                    -0.312593
      9 C                     0.029886
     10 C                     0.140040
     11 H                     0.329584
     12 H                     0.289475
     13 H                     0.306551
     14 H                     0.274826
     15 H                     0.357446
  ----------------------------------------
  Sum of atomic charges =     0.000000

 -----------------------------------------------------------------
                    Cartesian Multipole Moments
 -----------------------------------------------------------------
    Charge (ESU x 10^10)
                 0.0000
    Dipole Moment (Debye)
         X      -2.3023      Y      -1.0500      Z      -0.0000
       Tot       2.5305
    Quadrupole Moments (Debye-Ang)
        XX     -43.7870     XY      -6.4404     YY     -57.8843
        XZ       0.0000     YZ       0.0000     ZZ     -60.5626
    Octopole Moments (Debye-Ang^2)
       XXX     -45.0152    XXY      -5.7429    XYY      20.2737
       YYY     -17.0642    XXZ      -0.0000    XYZ       0.0000
       YYZ       0.0000    XZZ      -0.6231    YZZ       0.9589
       ZZZ      -0.0000
    Hexadecapole Moments (Debye-Ang^3)
      XXXX    -712.0369   XXXY     -62.6359   XXYY    -183.7389
      XYYY     -31.6260   YYYY    -604.0690   XXXZ       0.0000
      XXYZ       0.0000   XYYZ       0.0000   YYYZ       0.0000
      XXZZ    -171.3281   XYZZ      -1.1763   YYZZ    -122.6121
      XZZZ       0.0000   YZZZ       0.0000   ZZZZ     -64.5342
 -----------------------------------------------------------------
Archival summary:
1\1\n-62-29-10\SP\ProcedureUnspecified\BasisUnspecified\555\malop\WedMay809:55:552019WedMay809:55:552019\0\\#,ProcedureUnspecified,BasisUnspecified,\\0,1\C\N,1,1.38182\C,2,1.30551,1,104.18\H,3,1.07746,2,125.183,1,180,0\N,3,1.37601,2,113.269,1,0,0\H,5,1.0053,3,127.367,2,180,0\C,5,1.37427,3,106.743,2,-0,0\N,7,1.33366,5,128.73,3,-180,0\C,8,1.33073,7,111.405,5,-180,0\H,9,1.08341,8,116.059,7,180,0\N,9,1.33855,8,128.571,7,0,0\C,11,1.33926,9,118.701,8,-0,0\N,12,1.34913,11,119.071,9,-180,0\H,13,1.00259,12,120.298,11,180,0\H,13,1.0031,12,119.173,11,-0,0\\HF=-464.636765\\@

 Total job time:  2975.82s(wall), 7864.57s(cpu) 
 Wed May  8 09:55:55 2019

======= MOLDEN-FORMATTED INPUT FILE FOLLOWS =======
[Molden Format]
[Atoms] (Angs)
  N      1    7      1.94018933      0.52508494      0.00000000
  N      2    7     -0.02213269      1.91541175      0.00000000
  N      3    7     -1.17840874     -1.47034963     -0.00000000
  N      4    7     -2.06912523      0.58482266      0.00000000
  N      5    7      1.87296022     -1.79117643     -0.00000000
  C      6    6      1.29026180      1.69525713      0.00000000
  C      7    6     -0.70757697      0.77138093      0.00000000
  C      8    6     -0.17789318     -0.51725539     -0.00000000
  C      9    6      1.22552274     -0.60755281     -0.00000000
  C     10    6     -2.28299045     -0.77446763     -0.00000000
  H     11    1     -2.76356369      1.31172362      0.00000000
  H     12    1     -3.27766143     -1.18864608     -0.00000000
  H     13    1      1.92065024      2.57638112      0.00000000
  H     14    1      1.35622854     -2.65035184     -0.00000000
  H     15    1      2.87602238     -1.79983315     -0.00000000

======= END OF MOLDEN-FORMATTED INPUT FILE =======


        *************************************************************
        *                                                           *
        *  Thank you very much for using Q-Chem.  Have a nice day.  *
        *                                                           *
        *************************************************************


