[Molden Format]
[Atoms] (Angs)
  N      1    7      1.94018933      0.52508494      0.00000000
  N      2    7     -0.02213269      1.91541175      0.00000000
  N      3    7     -1.17840874     -1.47034963     -0.00000000
  N      4    7     -2.06912523      0.58482266      0.00000000
  N      5    7      1.87296022     -1.79117643     -0.00000000
  C      6    6      1.29026180      1.69525713      0.00000000
  C      7    6     -0.70757697      0.77138093      0.00000000
  C      8    6     -0.17789318     -0.51725539     -0.00000000
  C      9    6      1.22552274     -0.60755281     -0.00000000
  C     10    6     -2.28299045     -0.77446763     -0.00000000
  H     11    1     -2.76356369      1.31172362      0.00000000
  H     12    1     -3.27766143     -1.18864608     -0.00000000
  H     13    1      1.92065024      2.57638112      0.00000000
  H     14    1      1.35622854     -2.65035184     -0.00000000
  H     15    1      2.87602238     -1.79983315     -0.00000000
[GTO]
1    0
S    6    1.000000
   6.29348000E+03    1.96979000E-03 
   9.49044000E+02    1.49613000E-02 
   2.18776000E+02    7.35006000E-02 
   6.36916000E+01    2.48937000E-01 
   1.88282000E+01    6.02460000E-01 
   2.72023000E+00    2.56202000E-01 
SP   3    1.000000
   3.06331000E+01    1.11906000E-01   3.83119000E-02 
   7.02614000E+00    9.21666000E-01   2.37403000E-01 
   2.11205000E+00   -2.56919000E-03   8.17592000E-01 
SP   1    1.000000
   6.84009000E-01    1.00000000E+00   1.00000000E+00 
SP   1    1.000000
   2.00878000E-01    1.00000000E+00   1.00000000E+00 
SP   1    1.000000
   6.39000000E-02    1.00000000E+00   1.00000000E+00 
SP   1    1.000000
   1.92469880E-02    1.00000000E+00   1.00000000E+00 
D    1    1.000000
   9.13000000E-01    1.00000000E+00 

2    0
S    6    1.000000
   6.29348000E+03    1.96979000E-03 
   9.49044000E+02    1.49613000E-02 
   2.18776000E+02    7.35006000E-02 
   6.36916000E+01    2.48937000E-01 
   1.88282000E+01    6.02460000E-01 
   2.72023000E+00    2.56202000E-01 
SP   3    1.000000
   3.06331000E+01    1.11906000E-01   3.83119000E-02 
   7.02614000E+00    9.21666000E-01   2.37403000E-01 
   2.11205000E+00   -2.56919000E-03   8.17592000E-01 
SP   1    1.000000
   6.84009000E-01    1.00000000E+00   1.00000000E+00 
SP   1    1.000000
   2.00878000E-01    1.00000000E+00   1.00000000E+00 
SP   1    1.000000
   6.39000000E-02    1.00000000E+00   1.00000000E+00 
SP   1    1.000000
   1.92469880E-02    1.00000000E+00   1.00000000E+00 
D    1    1.000000
   9.13000000E-01    1.00000000E+00 

3    0
S    6    1.000000
   6.29348000E+03    1.96979000E-03 
   9.49044000E+02    1.49613000E-02 
   2.18776000E+02    7.35006000E-02 
   6.36916000E+01    2.48937000E-01 
   1.88282000E+01    6.02460000E-01 
   2.72023000E+00    2.56202000E-01 
SP   3    1.000000
   3.06331000E+01    1.11906000E-01   3.83119000E-02 
   7.02614000E+00    9.21666000E-01   2.37403000E-01 
   2.11205000E+00   -2.56919000E-03   8.17592000E-01 
SP   1    1.000000
   6.84009000E-01    1.00000000E+00   1.00000000E+00 
SP   1    1.000000
   2.00878000E-01    1.00000000E+00   1.00000000E+00 
SP   1    1.000000
   6.39000000E-02    1.00000000E+00   1.00000000E+00 
SP   1    1.000000
   1.92469880E-02    1.00000000E+00   1.00000000E+00 
D    1    1.000000
   9.13000000E-01    1.00000000E+00 

4    0
S    6    1.000000
   6.29348000E+03    1.96979000E-03 
   9.49044000E+02    1.49613000E-02 
   2.18776000E+02    7.35006000E-02 
   6.36916000E+01    2.48937000E-01 
   1.88282000E+01    6.02460000E-01 
   2.72023000E+00    2.56202000E-01 
SP   3    1.000000
   3.06331000E+01    1.11906000E-01   3.83119000E-02 
   7.02614000E+00    9.21666000E-01   2.37403000E-01 
   2.11205000E+00   -2.56919000E-03   8.17592000E-01 
SP   1    1.000000
   6.84009000E-01    1.00000000E+00   1.00000000E+00 
SP   1    1.000000
   2.00878000E-01    1.00000000E+00   1.00000000E+00 
SP   1    1.000000
   6.39000000E-02    1.00000000E+00   1.00000000E+00 
SP   1    1.000000
   1.92469880E-02    1.00000000E+00   1.00000000E+00 
D    1    1.000000
   9.13000000E-01    1.00000000E+00 

5    0
S    6    1.000000
   6.29348000E+03    1.96979000E-03 
   9.49044000E+02    1.49613000E-02 
   2.18776000E+02    7.35006000E-02 
   6.36916000E+01    2.48937000E-01 
   1.88282000E+01    6.02460000E-01 
   2.72023000E+00    2.56202000E-01 
SP   3    1.000000
   3.06331000E+01    1.11906000E-01   3.83119000E-02 
   7.02614000E+00    9.21666000E-01   2.37403000E-01 
   2.11205000E+00   -2.56919000E-03   8.17592000E-01 
SP   1    1.000000
   6.84009000E-01    1.00000000E+00   1.00000000E+00 
SP   1    1.000000
   2.00878000E-01    1.00000000E+00   1.00000000E+00 
SP   1    1.000000
   6.39000000E-02    1.00000000E+00   1.00000000E+00 
SP   1    1.000000
   1.92469880E-02    1.00000000E+00   1.00000000E+00 
D    1    1.000000
   9.13000000E-01    1.00000000E+00 

6    0
S    1    1.000000
   4.56324000E+03    1.96665000E-03 
S    1    1.000000
   6.82024000E+02    1.52306000E-02 
S    1    1.000000
   1.54973000E+02    7.61269000E-02 
S    1    1.000000
   4.44553000E+01    2.60801000E-01 
S    1    1.000000
   1.30290000E+01    6.16462000E-01 
S    1    1.000000
   1.82773000E+00    2.21006000E-01 
SP   3    1.000000
   2.09642000E+01    1.14660000E-01   4.02487000E-02 
   4.80331000E+00    9.19999000E-01   2.37594000E-01 
   1.45933000E+00   -3.03068000E-03   8.15854000E-01 
SP   1    1.000000
   4.83456000E-01    1.00000000E+00   1.00000000E+00 
SP   1    1.000000
   1.45585000E-01    1.00000000E+00   1.00000000E+00 
SP   1    1.000000
   4.38000000E-02    1.00000000E+00   1.00000000E+00 
SP   1    1.000000
   1.31927711E-02    1.00000000E+00   1.00000000E+00 
D    1    1.000000
   6.26000000E-01    1.00000000E+00 

7    0
S    1    1.000000
   4.56324000E+03    1.96665000E-03 
S    1    1.000000
   6.82024000E+02    1.52306000E-02 
S    1    1.000000
   1.54973000E+02    7.61269000E-02 
S    1    1.000000
   4.44553000E+01    2.60801000E-01 
S    1    1.000000
   1.30290000E+01    6.16462000E-01 
S    1    1.000000
   1.82773000E+00    2.21006000E-01 
SP   3    1.000000
   2.09642000E+01    1.14660000E-01   4.02487000E-02 
   4.80331000E+00    9.19999000E-01   2.37594000E-01 
   1.45933000E+00   -3.03068000E-03   8.15854000E-01 
SP   1    1.000000
   4.83456000E-01    1.00000000E+00   1.00000000E+00 
SP   1    1.000000
   1.45585000E-01    1.00000000E+00   1.00000000E+00 
SP   1    1.000000
   4.38000000E-02    1.00000000E+00   1.00000000E+00 
SP   1    1.000000
   1.31927711E-02    1.00000000E+00   1.00000000E+00 
D    1    1.000000
   6.26000000E-01    1.00000000E+00 

8    0
S    1    1.000000
   4.56324000E+03    1.96665000E-03 
S    1    1.000000
   6.82024000E+02    1.52306000E-02 
S    1    1.000000
   1.54973000E+02    7.61269000E-02 
S    1    1.000000
   4.44553000E+01    2.60801000E-01 
S    1    1.000000
   1.30290000E+01    6.16462000E-01 
S    1    1.000000
   1.82773000E+00    2.21006000E-01 
SP   3    1.000000
   2.09642000E+01    1.14660000E-01   4.02487000E-02 
   4.80331000E+00    9.19999000E-01   2.37594000E-01 
   1.45933000E+00   -3.03068000E-03   8.15854000E-01 
SP   1    1.000000
   4.83456000E-01    1.00000000E+00   1.00000000E+00 
SP   1    1.000000
   1.45585000E-01    1.00000000E+00   1.00000000E+00 
SP   1    1.000000
   4.38000000E-02    1.00000000E+00   1.00000000E+00 
SP   1    1.000000
   1.31927711E-02    1.00000000E+00   1.00000000E+00 
D    1    1.000000
   6.26000000E-01    1.00000000E+00 

9    0
S    1    1.000000
   4.56324000E+03    1.96665000E-03 
S    1    1.000000
   6.82024000E+02    1.52306000E-02 
S    1    1.000000
   1.54973000E+02    7.61269000E-02 
S    1    1.000000
   4.44553000E+01    2.60801000E-01 
S    1    1.000000
   1.30290000E+01    6.16462000E-01 
S    1    1.000000
   1.82773000E+00    2.21006000E-01 
SP   3    1.000000
   2.09642000E+01    1.14660000E-01   4.02487000E-02 
   4.80331000E+00    9.19999000E-01   2.37594000E-01 
   1.45933000E+00   -3.03068000E-03   8.15854000E-01 
SP   1    1.000000
   4.83456000E-01    1.00000000E+00   1.00000000E+00 
SP   1    1.000000
   1.45585000E-01    1.00000000E+00   1.00000000E+00 
SP   1    1.000000
   4.38000000E-02    1.00000000E+00   1.00000000E+00 
SP   1    1.000000
   1.31927711E-02    1.00000000E+00   1.00000000E+00 
D    1    1.000000
   6.26000000E-01    1.00000000E+00 

10    0
S    1    1.000000
   4.56324000E+03    1.96665000E-03 
S    1    1.000000
   6.82024000E+02    1.52306000E-02 
S    1    1.000000
   1.54973000E+02    7.61269000E-02 
S    1    1.000000
   4.44553000E+01    2.60801000E-01 
S    1    1.000000
   1.30290000E+01    6.16462000E-01 
S    1    1.000000
   1.82773000E+00    2.21006000E-01 
SP   3    1.000000
   2.09642000E+01    1.14660000E-01   4.02487000E-02 
   4.80331000E+00    9.19999000E-01   2.37594000E-01 
   1.45933000E+00   -3.03068000E-03   8.15854000E-01 
SP   1    1.000000
   4.83456000E-01    1.00000000E+00   1.00000000E+00 
SP   1    1.000000
   1.45585000E-01    1.00000000E+00   1.00000000E+00 
SP   1    1.000000
   4.38000000E-02    1.00000000E+00   1.00000000E+00 
SP   1    1.000000
   1.31927711E-02    1.00000000E+00   1.00000000E+00 
D    1    1.000000
   6.26000000E-01    1.00000000E+00 

11    0
S    3    1.000000
   3.38650000E+01    2.54938000E-02 
   5.09479000E+00    1.90373000E-01 
   1.15879000E+00    8.52161000E-01 
S    1    1.000000
   3.25840000E-01    1.00000000E+00 
S    1    1.000000
   1.02741000E-01    1.00000000E+00 
S    1    1.000000
   3.60000000E-02    1.00000000E+00 
P    1    1.000000
   7.50000000E-01    1.00000000E+00 

12    0
S    3    1.000000
   3.38650000E+01    2.54938000E-02 
   5.09479000E+00    1.90373000E-01 
   1.15879000E+00    8.52161000E-01 
S    1    1.000000
   3.25840000E-01    1.00000000E+00 
S    1    1.000000
   1.02741000E-01    1.00000000E+00 
S    1    1.000000
   3.60000000E-02    1.00000000E+00 
P    1    1.000000
   7.50000000E-01    1.00000000E+00 

13    0
S    3    1.000000
   3.38650000E+01    2.54938000E-02 
   5.09479000E+00    1.90373000E-01 
   1.15879000E+00    8.52161000E-01 
S    1    1.000000
   3.25840000E-01    1.00000000E+00 
S    1    1.000000
   1.02741000E-01    1.00000000E+00 
S    1    1.000000
   3.60000000E-02    1.00000000E+00 
P    1    1.000000
   7.50000000E-01    1.00000000E+00 

14    0
S    3    1.000000
   3.38650000E+01    2.54938000E-02 
   5.09479000E+00    1.90373000E-01 
   1.15879000E+00    8.52161000E-01 
S    1    1.000000
   3.25840000E-01    1.00000000E+00 
S    1    1.000000
   1.02741000E-01    1.00000000E+00 
S    1    1.000000
   3.60000000E-02    1.00000000E+00 
P    1    1.000000
   7.50000000E-01    1.00000000E+00 

15    0
S    3    1.000000
   3.38650000E+01    2.54938000E-02 
   5.09479000E+00    1.90373000E-01 
   1.15879000E+00    8.52161000E-01 
S    1    1.000000
   3.25840000E-01    1.00000000E+00 
S    1    1.000000
   1.02741000E-01    1.00000000E+00 
S    1    1.000000
   3.60000000E-02    1.00000000E+00 
P    1    1.000000
   7.50000000E-01    1.00000000E+00 

[MO]
Sym=X
Ene=0.920254
Spin=Alpha
Occup=1
1    0.000184034669
2    0.000259883239
3    7.68808304e-05
4    -0.000103948068
5    1.16482516e-15
6    -0.000396908763
7    0.000289108958
8    -0.000612432067
9    -2.43823694e-15
10    -0.000225256533
11    -8.14405819e-06
12    0.000180002683
13    1.04409855e-14
14    0.000117466009
15    6.61541471e-05
16    -3.50173156e-05
17    -6.87471999e-14
18    0.000330415829
19    -4.3655839e-05
20    -0.0002021226
21    -3.93172205e-14
22    0.000292098674
23    -2.27849098e-16
24    9.36181985e-05
25    2.42644552e-16
26    9.32227598e-05
27    0.000192698434
28    0.000267047661
29    -0.000135129631
30    3.67545792e-05
31    1.21634322e-15
32    -0.000379641354
33    -0.000651827801
34    5.50075218e-05
35    -1.84679573e-15
36    -0.000413160342
37    0.000148870172
38    0.000143921729
39    7.6747257e-15
40    -0.000404475335
41    -0.000223492333
42    3.34264927e-05
43    -5.13214015e-14
44    -0.000596233248
45    -0.000253976066
46    -2.38806368e-05
47    -8.81813912e-14
48    0.000157336754
49    1.20279036e-16
50    9.15219346e-05
51    -4.8349245e-18
52    -0.000260116751
53    2.04090904e-07
54    1.96183842e-07
55    -3.05722376e-07
56    2.19578074e-06
57    -1.40518631e-15
58    1.38998089e-05
59    3.62610476e-06
60    -1.17325143e-05
61    3.96988101e-15
62    -0.000317119946
63    -8.2459938e-05
64    -7.21122121e-05
65    -1.28942909e-14
66    -0.000274468034
67    -7.4169086e-05
68    -6.81191961e-05
69    6.32890918e-14
70    -0.000323191495
71    -2.04757182e-05
72    -1.70620691e-05
73    -4.94299916e-14
74    -2.2886227e-07
75    -6.67077779e-17
76    2.77331636e-06
77    2.40740088e-16
78    -3.72295599e-06
79    1.21789473e-06
80    6.23529908e-06
81    5.0662541e-06
82    3.68236367e-06
83    -7.21881781e-16
84    -4.7523102e-05
85    -4.51290689e-05
86    -1.7793389e-05
87    1.70932822e-16
88    0.000327036694
89    0.000179668682
90    7.89534977e-06
91    4.90011914e-15
92    0.000432563352
93    -4.07207498e-05
94    7.83042543e-05
95    -3.10054549e-14
96    0.000366100535
97    8.81127428e-05
98    5.29977252e-05
99    4.89565539e-14
100    -1.4667096e-05
101    4.01648931e-16
102    -1.21517686e-06
103    -2.51331195e-16
104    -1.18459448e-05
105    1.11584853e-06
106    6.79505273e-06
107    -1.43007038e-06
108    6.43030934e-06
109    3.86147896e-16
110    -5.36470687e-05
111    1.55941053e-05
112    -5.18814122e-05
113    -2.17052671e-15
114    0.000363317919
115    -0.000159925051
116    0.000109517954
117    6.48066246e-15
118    0.00034779226
119    -0.000153128403
120    4.9281526e-06
121    -3.63459058e-14
122    0.00018589961
123    -8.85915045e-05
124    -4.7708428e-05
125    3.66959063e-14
126    9.53718433e-06
127    1.77308058e-16
128    -4.3287179e-06
129    -2.27716541e-17
130    1.28282887e-05
131    -0.00110943914
132    -0.0085887825
133    -0.0428451619
134    -0.147098021
135    -0.347507749
136    -0.126609589
137    -0.465375464
138    0.00017887321
139    0.00034553804
140    7.07379099e-16
141    -0.00159164775
142    -2.1110084e-05
143    -0.000117351098
144    -1.77998369e-15
145    -0.000683881424
146    0.000412462459
147    0.000684134141
148    8.918744e-15
149    0.000456706295
150    -0.000377330928
151    -0.000295988166
152    4.64356971e-14
153    0.00125346537
154    -0.00018258777
155    -0.00015273264
156    1.0775439e-13
157    1.14243487e-05
158    -3.7334139e-16
159    0.000191988652
160    -2.52839207e-16
161    -2.43658857e-05
162    -2.5426327e-06
163    -1.97023511e-05
164    -9.81583174e-05
165    -0.000337437452
166    -0.000790543264
167    -0.00024532273
168    -0.00108721662
169    6.09557139e-06
170    1.9285231e-05
171    3.0125313e-16
172    -0.000114269715
173    -5.17364305e-05
174    -0.000103793552
175    2.08860119e-16
176    0.000555678349
177    0.000862900152
178    0.000404229847
179    -2.00365112e-15
180    -0.00104848392
181    0.000281916303
182    4.68303631e-06
183    1.53081064e-13
184    -0.000409000239
185    0.000294755793
186    -3.5117444e-05
187    -1.08181038e-13
188    -5.49872697e-05
189    1.02662133e-15
190    -3.31942692e-07
191    -1.63338124e-16
192    5.21865512e-05
193    3.59404609e-07
194    2.74911406e-06
195    1.39530301e-05
196    4.69736765e-05
197    0.000119748869
198    7.83273521e-05
199    0.000129047567
200    1.44197019e-05
201    9.35482066e-06
202    4.52075477e-16
203    -7.14129747e-05
204    -8.16452216e-05
205    -4.26499272e-05
206    -1.24433126e-15
207    -5.60426533e-06
208    -0.000220667838
209    -0.000465582751
210    1.04262986e-14
211    0.000246313292
212    -7.25740333e-05
213    0.000129890404
214    -2.34913841e-13
215    -0.000747938926
216    -0.000316328699
217    -0.000295996886
218    2.98324212e-13
219    -1.57458686e-05
220    9.38411797e-16
221    5.89638857e-06
222    4.40726847e-17
223    1.08815488e-06
224    -6.08215104e-07
225    -4.72257482e-06
226    -2.34638442e-05
227    -8.08728982e-05
228    -0.000185670247
229    -3.11955224e-05
230    -0.000272973529
231    1.82651673e-05
232    1.92572772e-05
233    8.95159507e-16
234    -8.61650475e-05
235    -8.82786986e-05
236    -0.000101752745
237    -1.96732679e-15
238    0.000224852309
239    -1.44780578e-05
240    0.000761192492
241    6.90390613e-16
242    -0.000708912765
243    -6.04352262e-05
244    -0.00012704916
245    1.76226212e-13
246    -0.000466708774
247    9.01344399e-05
248    1.71141819e-05
249    -2.05146476e-13
250    -7.70829203e-05
251    1.64353503e-16
252    -2.83326941e-06
253    5.24523735e-16
254    4.07690634e-05
255    7.30709549e-08
256    5.52169382e-07
257    2.8527602e-06
258    9.41035709e-06
259    2.56888157e-05
260    2.22143214e-05
261    2.26791203e-05
262    -3.2834714e-07
263    4.98965338e-06
264    -4.7959917e-16
265    -4.14957258e-05
266    3.05592917e-06
267    -2.61925954e-05
268    1.24917962e-15
269    0.000120215483
270    0.000171007948
271    0.000103339902
272    -4.20444732e-15
273    0.000153513402
274    0.000295858973
275    0.000101241376
276    5.72807752e-15
277    0.000366366538
278    3.24656346e-05
279    0.00013304202
280    -4.97949232e-14
281    -9.49495379e-06
282    -3.30678081e-16
283    -6.48183364e-06
284    3.66993842e-16
285    1.13546245e-05
286    -3.12681056e-06
287    3.31677407e-07
288    -4.38710479e-05
289    -0.000102157338
290    -1.11531415e-05
291    2.41913247e-06
292    -9.27107371e-16
293    -5.2652248e-06
294    3.54936817e-05
295    0.000119265539
296    0.000247610711
297    4.07895671e-06
298    -1.6489504e-06
299    -3.51601719e-16
300    -0.00036610637
301    -0.000524978871
302    -0.00019058707
303    0.000679851737
304    0.000184511875
305    0.000255226241
306    1.68781862e-16
307    -1.32948874e-06
308    -4.80676157e-05
309    -2.97233214e-05
310    -0.000177730642
311    -2.90979153e-06
312    -1.60863747e-05
313    8.26610402e-17
314    -3.21731969e-06
315    -1.81329739e-06
316    0.000113929646
317    8.26636932e-06
318    6.57998732e-06
319    -4.27801325e-06
320    -2.18594925e-16
[5D]