[Molden Format]
[Atoms] (Angs)
  N      1    7      1.94018933      0.52508494      0.00000000
  N      2    7     -0.02213269      1.91541175      0.00000000
  N      3    7     -1.17840874     -1.47034963     -0.00000000
  N      4    7     -2.06912523      0.58482266      0.00000000
  N      5    7      1.87296022     -1.79117643     -0.00000000
  C      6    6      1.29026180      1.69525713      0.00000000
  C      7    6     -0.70757697      0.77138093      0.00000000
  C      8    6     -0.17789318     -0.51725539     -0.00000000
  C      9    6      1.22552274     -0.60755281     -0.00000000
  C     10    6     -2.28299045     -0.77446763     -0.00000000
  H     11    1     -2.76356369      1.31172362      0.00000000
  H     12    1     -3.27766143     -1.18864608     -0.00000000
  H     13    1      1.92065024      2.57638112      0.00000000
  H     14    1      1.35622854     -2.65035184     -0.00000000
  H     15    1      2.87602238     -1.79983315     -0.00000000
[GTO]
1    0
S    6    1.000000
   6.29348000E+03    1.96979000E-03 
   9.49044000E+02    1.49613000E-02 
   2.18776000E+02    7.35006000E-02 
   6.36916000E+01    2.48937000E-01 
   1.88282000E+01    6.02460000E-01 
   2.72023000E+00    2.56202000E-01 
SP   3    1.000000
   3.06331000E+01    1.11906000E-01   3.83119000E-02 
   7.02614000E+00    9.21666000E-01   2.37403000E-01 
   2.11205000E+00   -2.56919000E-03   8.17592000E-01 
SP   1    1.000000
   6.84009000E-01    1.00000000E+00   1.00000000E+00 
SP   1    1.000000
   2.00878000E-01    1.00000000E+00   1.00000000E+00 
SP   1    1.000000
   6.39000000E-02    1.00000000E+00   1.00000000E+00 
SP   1    1.000000
   1.92469880E-02    1.00000000E+00   1.00000000E+00 
D    1    1.000000
   9.13000000E-01    1.00000000E+00 

2    0
S    6    1.000000
   6.29348000E+03    1.96979000E-03 
   9.49044000E+02    1.49613000E-02 
   2.18776000E+02    7.35006000E-02 
   6.36916000E+01    2.48937000E-01 
   1.88282000E+01    6.02460000E-01 
   2.72023000E+00    2.56202000E-01 
SP   3    1.000000
   3.06331000E+01    1.11906000E-01   3.83119000E-02 
   7.02614000E+00    9.21666000E-01   2.37403000E-01 
   2.11205000E+00   -2.56919000E-03   8.17592000E-01 
SP   1    1.000000
   6.84009000E-01    1.00000000E+00   1.00000000E+00 
SP   1    1.000000
   2.00878000E-01    1.00000000E+00   1.00000000E+00 
SP   1    1.000000
   6.39000000E-02    1.00000000E+00   1.00000000E+00 
SP   1    1.000000
   1.92469880E-02    1.00000000E+00   1.00000000E+00 
D    1    1.000000
   9.13000000E-01    1.00000000E+00 

3    0
S    6    1.000000
   6.29348000E+03    1.96979000E-03 
   9.49044000E+02    1.49613000E-02 
   2.18776000E+02    7.35006000E-02 
   6.36916000E+01    2.48937000E-01 
   1.88282000E+01    6.02460000E-01 
   2.72023000E+00    2.56202000E-01 
SP   3    1.000000
   3.06331000E+01    1.11906000E-01   3.83119000E-02 
   7.02614000E+00    9.21666000E-01   2.37403000E-01 
   2.11205000E+00   -2.56919000E-03   8.17592000E-01 
SP   1    1.000000
   6.84009000E-01    1.00000000E+00   1.00000000E+00 
SP   1    1.000000
   2.00878000E-01    1.00000000E+00   1.00000000E+00 
SP   1    1.000000
   6.39000000E-02    1.00000000E+00   1.00000000E+00 
SP   1    1.000000
   1.92469880E-02    1.00000000E+00   1.00000000E+00 
D    1    1.000000
   9.13000000E-01    1.00000000E+00 

4    0
S    6    1.000000
   6.29348000E+03    1.96979000E-03 
   9.49044000E+02    1.49613000E-02 
   2.18776000E+02    7.35006000E-02 
   6.36916000E+01    2.48937000E-01 
   1.88282000E+01    6.02460000E-01 
   2.72023000E+00    2.56202000E-01 
SP   3    1.000000
   3.06331000E+01    1.11906000E-01   3.83119000E-02 
   7.02614000E+00    9.21666000E-01   2.37403000E-01 
   2.11205000E+00   -2.56919000E-03   8.17592000E-01 
SP   1    1.000000
   6.84009000E-01    1.00000000E+00   1.00000000E+00 
SP   1    1.000000
   2.00878000E-01    1.00000000E+00   1.00000000E+00 
SP   1    1.000000
   6.39000000E-02    1.00000000E+00   1.00000000E+00 
SP   1    1.000000
   1.92469880E-02    1.00000000E+00   1.00000000E+00 
D    1    1.000000
   9.13000000E-01    1.00000000E+00 

5    0
S    6    1.000000
   6.29348000E+03    1.96979000E-03 
   9.49044000E+02    1.49613000E-02 
   2.18776000E+02    7.35006000E-02 
   6.36916000E+01    2.48937000E-01 
   1.88282000E+01    6.02460000E-01 
   2.72023000E+00    2.56202000E-01 
SP   3    1.000000
   3.06331000E+01    1.11906000E-01   3.83119000E-02 
   7.02614000E+00    9.21666000E-01   2.37403000E-01 
   2.11205000E+00   -2.56919000E-03   8.17592000E-01 
SP   1    1.000000
   6.84009000E-01    1.00000000E+00   1.00000000E+00 
SP   1    1.000000
   2.00878000E-01    1.00000000E+00   1.00000000E+00 
SP   1    1.000000
   6.39000000E-02    1.00000000E+00   1.00000000E+00 
SP   1    1.000000
   1.92469880E-02    1.00000000E+00   1.00000000E+00 
D    1    1.000000
   9.13000000E-01    1.00000000E+00 

6    0
S    1    1.000000
   4.56324000E+03    1.96665000E-03 
S    1    1.000000
   6.82024000E+02    1.52306000E-02 
S    1    1.000000
   1.54973000E+02    7.61269000E-02 
S    1    1.000000
   4.44553000E+01    2.60801000E-01 
S    1    1.000000
   1.30290000E+01    6.16462000E-01 
S    1    1.000000
   1.82773000E+00    2.21006000E-01 
SP   3    1.000000
   2.09642000E+01    1.14660000E-01   4.02487000E-02 
   4.80331000E+00    9.19999000E-01   2.37594000E-01 
   1.45933000E+00   -3.03068000E-03   8.15854000E-01 
SP   1    1.000000
   4.83456000E-01    1.00000000E+00   1.00000000E+00 
SP   1    1.000000
   1.45585000E-01    1.00000000E+00   1.00000000E+00 
SP   1    1.000000
   4.38000000E-02    1.00000000E+00   1.00000000E+00 
SP   1    1.000000
   1.31927711E-02    1.00000000E+00   1.00000000E+00 
D    1    1.000000
   6.26000000E-01    1.00000000E+00 

7    0
S    1    1.000000
   4.56324000E+03    1.96665000E-03 
S    1    1.000000
   6.82024000E+02    1.52306000E-02 
S    1    1.000000
   1.54973000E+02    7.61269000E-02 
S    1    1.000000
   4.44553000E+01    2.60801000E-01 
S    1    1.000000
   1.30290000E+01    6.16462000E-01 
S    1    1.000000
   1.82773000E+00    2.21006000E-01 
SP   3    1.000000
   2.09642000E+01    1.14660000E-01   4.02487000E-02 
   4.80331000E+00    9.19999000E-01   2.37594000E-01 
   1.45933000E+00   -3.03068000E-03   8.15854000E-01 
SP   1    1.000000
   4.83456000E-01    1.00000000E+00   1.00000000E+00 
SP   1    1.000000
   1.45585000E-01    1.00000000E+00   1.00000000E+00 
SP   1    1.000000
   4.38000000E-02    1.00000000E+00   1.00000000E+00 
SP   1    1.000000
   1.31927711E-02    1.00000000E+00   1.00000000E+00 
D    1    1.000000
   6.26000000E-01    1.00000000E+00 

8    0
S    1    1.000000
   4.56324000E+03    1.96665000E-03 
S    1    1.000000
   6.82024000E+02    1.52306000E-02 
S    1    1.000000
   1.54973000E+02    7.61269000E-02 
S    1    1.000000
   4.44553000E+01    2.60801000E-01 
S    1    1.000000
   1.30290000E+01    6.16462000E-01 
S    1    1.000000
   1.82773000E+00    2.21006000E-01 
SP   3    1.000000
   2.09642000E+01    1.14660000E-01   4.02487000E-02 
   4.80331000E+00    9.19999000E-01   2.37594000E-01 
   1.45933000E+00   -3.03068000E-03   8.15854000E-01 
SP   1    1.000000
   4.83456000E-01    1.00000000E+00   1.00000000E+00 
SP   1    1.000000
   1.45585000E-01    1.00000000E+00   1.00000000E+00 
SP   1    1.000000
   4.38000000E-02    1.00000000E+00   1.00000000E+00 
SP   1    1.000000
   1.31927711E-02    1.00000000E+00   1.00000000E+00 
D    1    1.000000
   6.26000000E-01    1.00000000E+00 

9    0
S    1    1.000000
   4.56324000E+03    1.96665000E-03 
S    1    1.000000
   6.82024000E+02    1.52306000E-02 
S    1    1.000000
   1.54973000E+02    7.61269000E-02 
S    1    1.000000
   4.44553000E+01    2.60801000E-01 
S    1    1.000000
   1.30290000E+01    6.16462000E-01 
S    1    1.000000
   1.82773000E+00    2.21006000E-01 
SP   3    1.000000
   2.09642000E+01    1.14660000E-01   4.02487000E-02 
   4.80331000E+00    9.19999000E-01   2.37594000E-01 
   1.45933000E+00   -3.03068000E-03   8.15854000E-01 
SP   1    1.000000
   4.83456000E-01    1.00000000E+00   1.00000000E+00 
SP   1    1.000000
   1.45585000E-01    1.00000000E+00   1.00000000E+00 
SP   1    1.000000
   4.38000000E-02    1.00000000E+00   1.00000000E+00 
SP   1    1.000000
   1.31927711E-02    1.00000000E+00   1.00000000E+00 
D    1    1.000000
   6.26000000E-01    1.00000000E+00 

10    0
S    1    1.000000
   4.56324000E+03    1.96665000E-03 
S    1    1.000000
   6.82024000E+02    1.52306000E-02 
S    1    1.000000
   1.54973000E+02    7.61269000E-02 
S    1    1.000000
   4.44553000E+01    2.60801000E-01 
S    1    1.000000
   1.30290000E+01    6.16462000E-01 
S    1    1.000000
   1.82773000E+00    2.21006000E-01 
SP   3    1.000000
   2.09642000E+01    1.14660000E-01   4.02487000E-02 
   4.80331000E+00    9.19999000E-01   2.37594000E-01 
   1.45933000E+00   -3.03068000E-03   8.15854000E-01 
SP   1    1.000000
   4.83456000E-01    1.00000000E+00   1.00000000E+00 
SP   1    1.000000
   1.45585000E-01    1.00000000E+00   1.00000000E+00 
SP   1    1.000000
   4.38000000E-02    1.00000000E+00   1.00000000E+00 
SP   1    1.000000
   1.31927711E-02    1.00000000E+00   1.00000000E+00 
D    1    1.000000
   6.26000000E-01    1.00000000E+00 

11    0
S    3    1.000000
   3.38650000E+01    2.54938000E-02 
   5.09479000E+00    1.90373000E-01 
   1.15879000E+00    8.52161000E-01 
S    1    1.000000
   3.25840000E-01    1.00000000E+00 
S    1    1.000000
   1.02741000E-01    1.00000000E+00 
S    1    1.000000
   3.60000000E-02    1.00000000E+00 
P    1    1.000000
   7.50000000E-01    1.00000000E+00 

12    0
S    3    1.000000
   3.38650000E+01    2.54938000E-02 
   5.09479000E+00    1.90373000E-01 
   1.15879000E+00    8.52161000E-01 
S    1    1.000000
   3.25840000E-01    1.00000000E+00 
S    1    1.000000
   1.02741000E-01    1.00000000E+00 
S    1    1.000000
   3.60000000E-02    1.00000000E+00 
P    1    1.000000
   7.50000000E-01    1.00000000E+00 

13    0
S    3    1.000000
   3.38650000E+01    2.54938000E-02 
   5.09479000E+00    1.90373000E-01 
   1.15879000E+00    8.52161000E-01 
S    1    1.000000
   3.25840000E-01    1.00000000E+00 
S    1    1.000000
   1.02741000E-01    1.00000000E+00 
S    1    1.000000
   3.60000000E-02    1.00000000E+00 
P    1    1.000000
   7.50000000E-01    1.00000000E+00 

14    0
S    3    1.000000
   3.38650000E+01    2.54938000E-02 
   5.09479000E+00    1.90373000E-01 
   1.15879000E+00    8.52161000E-01 
S    1    1.000000
   3.25840000E-01    1.00000000E+00 
S    1    1.000000
   1.02741000E-01    1.00000000E+00 
S    1    1.000000
   3.60000000E-02    1.00000000E+00 
P    1    1.000000
   7.50000000E-01    1.00000000E+00 

15    0
S    3    1.000000
   3.38650000E+01    2.54938000E-02 
   5.09479000E+00    1.90373000E-01 
   1.15879000E+00    8.52161000E-01 
S    1    1.000000
   3.25840000E-01    1.00000000E+00 
S    1    1.000000
   1.02741000E-01    1.00000000E+00 
S    1    1.000000
   3.60000000E-02    1.00000000E+00 
P    1    1.000000
   7.50000000E-01    1.00000000E+00 

[MO]
Sym=X
Ene=0.921854
Spin=Alpha
Occup=1
1    -0.000182962248
2    -0.000255789602
3    -9.27826144e-05
4    -0.000102081168
5    1.61427483e-15
6    0.000412467088
7    -0.000284488172
8    -0.000564969497
9    -4.79367641e-15
10    -0.000136212868
11    0.000202556224
12    0.000122485496
13    1.89348067e-14
14    0.000683588596
15    -0.000582666225
16    3.67923868e-05
17    -1.25134172e-13
18    -7.26896935e-05
19    -0.000158683916
20    9.65354059e-05
21    -7.56734454e-14
22    0.000281333068
23    1.15996756e-16
24    -7.43622544e-05
25    9.09322173e-17
26    -8.61527642e-05
27    2.88036345e-06
28    -2.75297872e-06
29    -4.75573666e-06
30    8.79504506e-06
31    2.52231025e-15
32    3.59707534e-05
33    1.23270501e-05
34    -3.51352843e-05
35    -4.57895318e-15
36    -0.000174756686
37    -1.22061031e-06
38    4.55624723e-05
39    1.71897065e-14
40    -0.000561959059
41    7.95714244e-05
42    0.000157168301
43    -1.06946958e-13
44    0.000353022715
45    7.46414524e-06
46    -5.63503637e-06
47    -1.19053269e-13
48    -3.29530064e-06
49    -3.3616539e-16
50    -1.14728103e-05
51    -2.79771709e-18
52    -3.77355878e-06
53    2.86096788e-06
54    -6.63267827e-07
55    -1.83737549e-05
56    1.60394507e-06
57    -1.27960517e-15
58    2.92699753e-05
59    3.95807157e-05
60    7.40425556e-06
61    8.98597544e-15
62    -0.000334901921
63    5.61156783e-05
64    -0.000174402557
65    -2.22981394e-14
66    -0.000387188447
67    9.20273736e-05
68    4.53944368e-06
69    1.14671732e-13
70    -0.00028286582
71    0.000397569128
72    -0.000148877185
73    2.51386668e-14
74    2.26802594e-05
75    2.16910996e-16
76    -2.83420601e-06
77    8.64909338e-16
78    3.47060767e-05
79    -6.07186346e-07
80    -4.70811832e-06
81    -5.16793453e-06
82    1.99300458e-06
83    3.06394357e-16
84    1.36089773e-05
85    3.55732752e-05
86    -1.00915469e-05
87    8.23610219e-16
88    0.000375445684
89    1.82024615e-05
90    -4.18539693e-06
91    7.32379502e-15
92    0.000806434638
93    0.00024426265
94    -0.000140505007
95    -4.3548186e-14
96    0.000430065459
97    3.7103611e-05
98    -0.000368709358
99    3.00807499e-14
100    -1.59375449e-06
101    -7.0388027e-17
102    -4.54434334e-06
103    2.7712788e-16
104    1.05122619e-05
105    -0.00016860853
106    -0.000250674202
107    -5.37884334e-05
108    9.06568807e-05
109    5.97766448e-16
110    0.000438926689
111    -0.000359841845
112    0.00068899764
113    -3.27400668e-15
114    -9.81130936e-05
115    0.000140771329
116    -2.53297662e-05
117    9.62427349e-15
118    -0.00106669488
119    -8.0843662e-05
120    -0.000366275021
121    -5.71728103e-14
122    -0.000524462355
123    0.000374732
124    -0.000286425789
125    4.4058527e-15
126    -0.000295311782
127    -1.21089459e-16
128    -8.84286907e-05
129    5.2879339e-16
130    -0.000192303487
131    -6.10967871e-07
132    -4.67616824e-06
133    -2.37124989e-05
134    -7.99438205e-05
135    -0.000203861072
136    -0.0001400991
137    -0.000218047773
138    -8.48848357e-06
139    2.92856649e-05
140    1.67788868e-15
141    0.000133919775
142    3.92030626e-05
143    -0.000161251839
144    -5.72040858e-15
145    -0.000197650236
146    -7.28603716e-05
147    0.000121958158
148    1.90443264e-14
149    -4.52099686e-06
150    0.000345166559
151    -8.2449984e-06
152    8.2782027e-14
153    -0.00149934924
154    6.92512783e-05
155    0.000280030196
156    9.76856047e-14
157    -6.93909176e-05
158    6.67009579e-17
159    -2.66622347e-06
160    -1.25530826e-16
161    -5.81726875e-05
162    1.3030281e-07
163    1.05855737e-06
164    4.92158152e-06
165    1.82758779e-05
166    2.96740568e-05
167    -4.73050958e-05
168    8.81311783e-05
169    -2.09848709e-05
170    1.68410035e-05
171    1.53256697e-15
172    0.000139109953
173    0.000109043482
174    -0.000118002508
175    3.49383981e-16
176    -0.000565647936
177    0.000341264611
178    0.00043858628
179    -1.10095186e-15
180    -0.000293600268
181    0.000367754184
182    0.000424091627
183    2.85240319e-13
184    -7.72913319e-05
185    -0.000698143835
186    4.30291441e-05
187    -1.31300149e-14
188    -8.96562613e-05
189    6.0964449e-16
190    -3.62913439e-06
191    -6.56921737e-16
192    -2.36179365e-05
193    8.73474685e-06
194    6.75594557e-05
195    0.00033734653
196    0.00115626815
197    0.00274363256
198    0.000969433102
199    0.0035926723
200    0.00010833188
201    -4.22687352e-06
202    2.20266725e-15
203    0.000398106996
204    0.000505906165
205    -0.000161404354
206    -2.11762793e-15
207    -0.000952382477
208    -0.00188054516
209    0.000179813828
210    2.20421583e-14
211    0.0121396468
212    0.00456770557
213    0.000223430034
214    -4.30120542e-13
215    0.00169688104
216    0.000546113217
217    -0.000279925657
218    9.19546009e-14
219    -4.86339241e-05
220    9.4262318e-16
221    -1.94383179e-05
222    1.86664116e-17
223    0.000264153686
224    0.0011094004
225    0.0085884915
226    0.042843679
227    0.147093881
228    0.347498962
229    0.126596206
230    0.465345559
231    0.000528125061
232    -0.000370004304
233    1.58471618e-15
234    0.00161963118
235    -0.000440150231
236    0.000391418942
237    -3.18704831e-15
238    0.0028562251
239    -0.000680063845
240    -0.000144766919
241    2.92541753e-15
242    -0.0121556767
243    0.00439356446
244    -0.00140984148
245    3.15567262e-13
246    0.000717298537
247    3.29435433e-06
248    0.000933788143
249    -7.55063336e-14
250    6.59809716e-05
251    9.93320393e-17
252    -0.000268642643
253    9.02604491e-16
254    9.74742442e-05
255    -6.89223081e-08
256    -4.98918589e-07
257    -2.74227883e-06
258    -8.43860824e-06
259    -2.89810789e-05
260    -4.69807703e-05
261    -8.45834377e-06
262    1.4592899e-07
263    2.85284595e-06
264    3.59582379e-16
265    0.000127865373
266    3.18831052e-05
267    -2.16866245e-05
268    3.53969973e-15
269    -0.000235874372
270    -0.000341726154
271    -0.000269992555
272    -4.3138554e-16
273    0.00162668408
274    0.000365153936
275    -7.84180476e-05
276    -1.03367421e-14
277    -0.000783550762
278    -9.89237024e-05
279    -0.000198325306
280    -4.79325254e-14
281    -1.42305036e-05
282    -4.67870688e-16
283    8.84367336e-06
284    1.23946146e-15
285    6.22801612e-06
286    6.07508467e-06
287    -5.83880543e-05
288    1.03306701e-05
289    0.000262506099
290    -4.16505975e-06
291    7.00097983e-06
292    1.09534152e-16
293    1.2228406e-05
294    -9.35070039e-05
295    -0.000203620529
296    8.91281508e-05
297    -8.99602288e-06
298    2.52003544e-07
299    -4.29928688e-17
300    1.32770996e-05
301    7.6524557e-05
302    -0.000114102256
303    -0.000166491503
304    -8.75710885e-06
305    -3.28542735e-05
306    6.40440909e-17
307    2.646103e-05
308    0.000142842202
309    -0.000140122552
310    -0.000226127082
311    3.60462089e-05
312    8.24701496e-05
313    1.36907821e-16
314    3.28226108e-05
315    3.56872542e-05
316    3.8602635e-05
317    -0.000648298282
318    -7.1893593e-05
319    5.8553104e-06
320    -8.98413841e-16
[5D]