[Molden Format]
[Atoms] (Angs)
  N      1    7      1.94018933      0.52508494      0.00000000
  N      2    7     -0.02213269      1.91541175      0.00000000
  N      3    7     -1.17840874     -1.47034963     -0.00000000
  N      4    7     -2.06912523      0.58482266      0.00000000
  N      5    7      1.87296022     -1.79117643     -0.00000000
  C      6    6      1.29026180      1.69525713      0.00000000
  C      7    6     -0.70757697      0.77138093      0.00000000
  C      8    6     -0.17789318     -0.51725539     -0.00000000
  C      9    6      1.22552274     -0.60755281     -0.00000000
  C     10    6     -2.28299045     -0.77446763     -0.00000000
  H     11    1     -2.76356369      1.31172362      0.00000000
  H     12    1     -3.27766143     -1.18864608     -0.00000000
  H     13    1      1.92065024      2.57638112      0.00000000
  H     14    1      1.35622854     -2.65035184     -0.00000000
  H     15    1      2.87602238     -1.79983315     -0.00000000
[GTO]
1    0
S    6    1.000000
   6.29348000E+03    1.96979000E-03 
   9.49044000E+02    1.49613000E-02 
   2.18776000E+02    7.35006000E-02 
   6.36916000E+01    2.48937000E-01 
   1.88282000E+01    6.02460000E-01 
   2.72023000E+00    2.56202000E-01 
SP   3    1.000000
   3.06331000E+01    1.11906000E-01   3.83119000E-02 
   7.02614000E+00    9.21666000E-01   2.37403000E-01 
   2.11205000E+00   -2.56919000E-03   8.17592000E-01 
SP   1    1.000000
   6.84009000E-01    1.00000000E+00   1.00000000E+00 
SP   1    1.000000
   2.00878000E-01    1.00000000E+00   1.00000000E+00 
SP   1    1.000000
   6.39000000E-02    1.00000000E+00   1.00000000E+00 
SP   1    1.000000
   1.92469880E-02    1.00000000E+00   1.00000000E+00 
D    1    1.000000
   9.13000000E-01    1.00000000E+00 

2    0
S    6    1.000000
   6.29348000E+03    1.96979000E-03 
   9.49044000E+02    1.49613000E-02 
   2.18776000E+02    7.35006000E-02 
   6.36916000E+01    2.48937000E-01 
   1.88282000E+01    6.02460000E-01 
   2.72023000E+00    2.56202000E-01 
SP   3    1.000000
   3.06331000E+01    1.11906000E-01   3.83119000E-02 
   7.02614000E+00    9.21666000E-01   2.37403000E-01 
   2.11205000E+00   -2.56919000E-03   8.17592000E-01 
SP   1    1.000000
   6.84009000E-01    1.00000000E+00   1.00000000E+00 
SP   1    1.000000
   2.00878000E-01    1.00000000E+00   1.00000000E+00 
SP   1    1.000000
   6.39000000E-02    1.00000000E+00   1.00000000E+00 
SP   1    1.000000
   1.92469880E-02    1.00000000E+00   1.00000000E+00 
D    1    1.000000
   9.13000000E-01    1.00000000E+00 

3    0
S    6    1.000000
   6.29348000E+03    1.96979000E-03 
   9.49044000E+02    1.49613000E-02 
   2.18776000E+02    7.35006000E-02 
   6.36916000E+01    2.48937000E-01 
   1.88282000E+01    6.02460000E-01 
   2.72023000E+00    2.56202000E-01 
SP   3    1.000000
   3.06331000E+01    1.11906000E-01   3.83119000E-02 
   7.02614000E+00    9.21666000E-01   2.37403000E-01 
   2.11205000E+00   -2.56919000E-03   8.17592000E-01 
SP   1    1.000000
   6.84009000E-01    1.00000000E+00   1.00000000E+00 
SP   1    1.000000
   2.00878000E-01    1.00000000E+00   1.00000000E+00 
SP   1    1.000000
   6.39000000E-02    1.00000000E+00   1.00000000E+00 
SP   1    1.000000
   1.92469880E-02    1.00000000E+00   1.00000000E+00 
D    1    1.000000
   9.13000000E-01    1.00000000E+00 

4    0
S    6    1.000000
   6.29348000E+03    1.96979000E-03 
   9.49044000E+02    1.49613000E-02 
   2.18776000E+02    7.35006000E-02 
   6.36916000E+01    2.48937000E-01 
   1.88282000E+01    6.02460000E-01 
   2.72023000E+00    2.56202000E-01 
SP   3    1.000000
   3.06331000E+01    1.11906000E-01   3.83119000E-02 
   7.02614000E+00    9.21666000E-01   2.37403000E-01 
   2.11205000E+00   -2.56919000E-03   8.17592000E-01 
SP   1    1.000000
   6.84009000E-01    1.00000000E+00   1.00000000E+00 
SP   1    1.000000
   2.00878000E-01    1.00000000E+00   1.00000000E+00 
SP   1    1.000000
   6.39000000E-02    1.00000000E+00   1.00000000E+00 
SP   1    1.000000
   1.92469880E-02    1.00000000E+00   1.00000000E+00 
D    1    1.000000
   9.13000000E-01    1.00000000E+00 

5    0
S    6    1.000000
   6.29348000E+03    1.96979000E-03 
   9.49044000E+02    1.49613000E-02 
   2.18776000E+02    7.35006000E-02 
   6.36916000E+01    2.48937000E-01 
   1.88282000E+01    6.02460000E-01 
   2.72023000E+00    2.56202000E-01 
SP   3    1.000000
   3.06331000E+01    1.11906000E-01   3.83119000E-02 
   7.02614000E+00    9.21666000E-01   2.37403000E-01 
   2.11205000E+00   -2.56919000E-03   8.17592000E-01 
SP   1    1.000000
   6.84009000E-01    1.00000000E+00   1.00000000E+00 
SP   1    1.000000
   2.00878000E-01    1.00000000E+00   1.00000000E+00 
SP   1    1.000000
   6.39000000E-02    1.00000000E+00   1.00000000E+00 
SP   1    1.000000
   1.92469880E-02    1.00000000E+00   1.00000000E+00 
D    1    1.000000
   9.13000000E-01    1.00000000E+00 

6    0
S    1    1.000000
   4.56324000E+03    1.96665000E-03 
S    1    1.000000
   6.82024000E+02    1.52306000E-02 
S    1    1.000000
   1.54973000E+02    7.61269000E-02 
S    1    1.000000
   4.44553000E+01    2.60801000E-01 
S    1    1.000000
   1.30290000E+01    6.16462000E-01 
S    1    1.000000
   1.82773000E+00    2.21006000E-01 
SP   3    1.000000
   2.09642000E+01    1.14660000E-01   4.02487000E-02 
   4.80331000E+00    9.19999000E-01   2.37594000E-01 
   1.45933000E+00   -3.03068000E-03   8.15854000E-01 
SP   1    1.000000
   4.83456000E-01    1.00000000E+00   1.00000000E+00 
SP   1    1.000000
   1.45585000E-01    1.00000000E+00   1.00000000E+00 
SP   1    1.000000
   4.38000000E-02    1.00000000E+00   1.00000000E+00 
SP   1    1.000000
   1.31927711E-02    1.00000000E+00   1.00000000E+00 
D    1    1.000000
   6.26000000E-01    1.00000000E+00 

7    0
S    1    1.000000
   4.56324000E+03    1.96665000E-03 
S    1    1.000000
   6.82024000E+02    1.52306000E-02 
S    1    1.000000
   1.54973000E+02    7.61269000E-02 
S    1    1.000000
   4.44553000E+01    2.60801000E-01 
S    1    1.000000
   1.30290000E+01    6.16462000E-01 
S    1    1.000000
   1.82773000E+00    2.21006000E-01 
SP   3    1.000000
   2.09642000E+01    1.14660000E-01   4.02487000E-02 
   4.80331000E+00    9.19999000E-01   2.37594000E-01 
   1.45933000E+00   -3.03068000E-03   8.15854000E-01 
SP   1    1.000000
   4.83456000E-01    1.00000000E+00   1.00000000E+00 
SP   1    1.000000
   1.45585000E-01    1.00000000E+00   1.00000000E+00 
SP   1    1.000000
   4.38000000E-02    1.00000000E+00   1.00000000E+00 
SP   1    1.000000
   1.31927711E-02    1.00000000E+00   1.00000000E+00 
D    1    1.000000
   6.26000000E-01    1.00000000E+00 

8    0
S    1    1.000000
   4.56324000E+03    1.96665000E-03 
S    1    1.000000
   6.82024000E+02    1.52306000E-02 
S    1    1.000000
   1.54973000E+02    7.61269000E-02 
S    1    1.000000
   4.44553000E+01    2.60801000E-01 
S    1    1.000000
   1.30290000E+01    6.16462000E-01 
S    1    1.000000
   1.82773000E+00    2.21006000E-01 
SP   3    1.000000
   2.09642000E+01    1.14660000E-01   4.02487000E-02 
   4.80331000E+00    9.19999000E-01   2.37594000E-01 
   1.45933000E+00   -3.03068000E-03   8.15854000E-01 
SP   1    1.000000
   4.83456000E-01    1.00000000E+00   1.00000000E+00 
SP   1    1.000000
   1.45585000E-01    1.00000000E+00   1.00000000E+00 
SP   1    1.000000
   4.38000000E-02    1.00000000E+00   1.00000000E+00 
SP   1    1.000000
   1.31927711E-02    1.00000000E+00   1.00000000E+00 
D    1    1.000000
   6.26000000E-01    1.00000000E+00 

9    0
S    1    1.000000
   4.56324000E+03    1.96665000E-03 
S    1    1.000000
   6.82024000E+02    1.52306000E-02 
S    1    1.000000
   1.54973000E+02    7.61269000E-02 
S    1    1.000000
   4.44553000E+01    2.60801000E-01 
S    1    1.000000
   1.30290000E+01    6.16462000E-01 
S    1    1.000000
   1.82773000E+00    2.21006000E-01 
SP   3    1.000000
   2.09642000E+01    1.14660000E-01   4.02487000E-02 
   4.80331000E+00    9.19999000E-01   2.37594000E-01 
   1.45933000E+00   -3.03068000E-03   8.15854000E-01 
SP   1    1.000000
   4.83456000E-01    1.00000000E+00   1.00000000E+00 
SP   1    1.000000
   1.45585000E-01    1.00000000E+00   1.00000000E+00 
SP   1    1.000000
   4.38000000E-02    1.00000000E+00   1.00000000E+00 
SP   1    1.000000
   1.31927711E-02    1.00000000E+00   1.00000000E+00 
D    1    1.000000
   6.26000000E-01    1.00000000E+00 

10    0
S    1    1.000000
   4.56324000E+03    1.96665000E-03 
S    1    1.000000
   6.82024000E+02    1.52306000E-02 
S    1    1.000000
   1.54973000E+02    7.61269000E-02 
S    1    1.000000
   4.44553000E+01    2.60801000E-01 
S    1    1.000000
   1.30290000E+01    6.16462000E-01 
S    1    1.000000
   1.82773000E+00    2.21006000E-01 
SP   3    1.000000
   2.09642000E+01    1.14660000E-01   4.02487000E-02 
   4.80331000E+00    9.19999000E-01   2.37594000E-01 
   1.45933000E+00   -3.03068000E-03   8.15854000E-01 
SP   1    1.000000
   4.83456000E-01    1.00000000E+00   1.00000000E+00 
SP   1    1.000000
   1.45585000E-01    1.00000000E+00   1.00000000E+00 
SP   1    1.000000
   4.38000000E-02    1.00000000E+00   1.00000000E+00 
SP   1    1.000000
   1.31927711E-02    1.00000000E+00   1.00000000E+00 
D    1    1.000000
   6.26000000E-01    1.00000000E+00 

11    0
S    3    1.000000
   3.38650000E+01    2.54938000E-02 
   5.09479000E+00    1.90373000E-01 
   1.15879000E+00    8.52161000E-01 
S    1    1.000000
   3.25840000E-01    1.00000000E+00 
S    1    1.000000
   1.02741000E-01    1.00000000E+00 
S    1    1.000000
   3.60000000E-02    1.00000000E+00 
P    1    1.000000
   7.50000000E-01    1.00000000E+00 

12    0
S    3    1.000000
   3.38650000E+01    2.54938000E-02 
   5.09479000E+00    1.90373000E-01 
   1.15879000E+00    8.52161000E-01 
S    1    1.000000
   3.25840000E-01    1.00000000E+00 
S    1    1.000000
   1.02741000E-01    1.00000000E+00 
S    1    1.000000
   3.60000000E-02    1.00000000E+00 
P    1    1.000000
   7.50000000E-01    1.00000000E+00 

13    0
S    3    1.000000
   3.38650000E+01    2.54938000E-02 
   5.09479000E+00    1.90373000E-01 
   1.15879000E+00    8.52161000E-01 
S    1    1.000000
   3.25840000E-01    1.00000000E+00 
S    1    1.000000
   1.02741000E-01    1.00000000E+00 
S    1    1.000000
   3.60000000E-02    1.00000000E+00 
P    1    1.000000
   7.50000000E-01    1.00000000E+00 

14    0
S    3    1.000000
   3.38650000E+01    2.54938000E-02 
   5.09479000E+00    1.90373000E-01 
   1.15879000E+00    8.52161000E-01 
S    1    1.000000
   3.25840000E-01    1.00000000E+00 
S    1    1.000000
   1.02741000E-01    1.00000000E+00 
S    1    1.000000
   3.60000000E-02    1.00000000E+00 
P    1    1.000000
   7.50000000E-01    1.00000000E+00 

15    0
S    3    1.000000
   3.38650000E+01    2.54938000E-02 
   5.09479000E+00    1.90373000E-01 
   1.15879000E+00    8.52161000E-01 
S    1    1.000000
   3.25840000E-01    1.00000000E+00 
S    1    1.000000
   1.02741000E-01    1.00000000E+00 
S    1    1.000000
   3.60000000E-02    1.00000000E+00 
P    1    1.000000
   7.50000000E-01    1.00000000E+00 

[MO]
Sym=X
Ene=0.92327
Spin=Alpha
Occup=1
1    -4.57544721e-06
2    1.43180201e-06
3    -2.00157869e-05
4    -1.74185718e-05
5    -1.92874017e-15
6    -3.20512522e-05
7    5.48006658e-05
8    7.57822708e-05
9    4.22658759e-15
10    -4.7412129e-05
11    5.77979401e-05
12    -0.000146139372
13    -2.00088454e-14
14    -0.000599804662
15    0.000405201482
16    -0.000114474651
17    1.13768544e-13
18    6.39601214e-05
19    0.000189737535
20    -0.000105993121
21    7.54756624e-14
22    -4.11585024e-05
23    -4.96900209e-16
24    4.9982945e-06
25    1.22777995e-16
26    -2.45347649e-05
27    -6.37986985e-06
28    -1.09046984e-06
29    -3.85479267e-06
30    -2.89498188e-05
31    -2.82070418e-15
32    -1.62827175e-05
33    3.06298694e-05
34    7.62685667e-05
35    4.18575585e-15
36    -0.000120271842
37    -0.000147702673
38    5.38794517e-05
39    -1.92371845e-14
40    -0.000125030319
41    -0.000179027759
42    2.5495273e-05
43    9.99529739e-14
44    -0.000303954606
45    -0.000175365874
46    1.98423102e-05
47    1.19824322e-13
48    -1.94492337e-06
49    2.89619732e-16
50    1.38772163e-05
51    1.9589342e-16
52    4.99317685e-05
53    0.00014532954
54    0.000213619072
55    -6.93876097e-05
56    -8.68828308e-05
57    2.50635665e-15
58    -0.000346928307
59    -0.000515695374
60    -0.000365973545
61    -4.6694356e-15
62    -0.000142198384
63    5.84946458e-05
64    4.64267686e-05
65    2.3131529e-14
66    0.000584618434
67    0.000248931412
68    3.72588038e-05
69    -9.86019395e-14
70    0.000703020172
71    -8.56235682e-05
72    0.000117514173
73    -2.72545683e-14
74    -0.000292090777
75    6.55224602e-16
76    0.000105225476
77    -4.99161536e-16
78    -9.75564321e-06
79    -9.34679916e-06
80    -1.61984875e-07
81    2.50196441e-05
82    -2.95047922e-06
83    8.81951392e-16
84    -4.82470761e-05
85    -9.35126423e-05
86    1.43526616e-05
87    5.6929566e-16
88    -0.000101964007
89    -3.36162179e-05
90    0.000152960569
91    -4.28995861e-15
92    -0.00085441296
93    -0.000644787655
94    0.000673438495
95    4.33068136e-14
96    -0.000332397052
97    -0.000320299015
98    0.000436721622
99    -1.3366969e-14
100    -1.32148132e-05
101    -4.19502865e-16
102    5.82629813e-06
103    -3.52257629e-16
104    -2.55510032e-05
105    -7.30035037e-06
106    -1.33077099e-06
107    -1.83255348e-05
108    1.89367964e-05
109    -4.6700406e-16
110    -3.84602627e-05
111    5.74927543e-05
112    -7.41597114e-05
113    2.39722665e-15
114    0.000145245804
115    3.48608073e-05
116    0.000110901258
117    -9.10216461e-15
118    -0.00012079515
119    5.51503992e-05
120    0.000122852207
121    5.13997696e-14
122    1.63157109e-05
123    -0.000140428991
124    3.15900262e-05
125    -1.34043986e-14
126    4.50492848e-05
127    -1.67479735e-17
128    1.13186944e-06
129    -8.16684462e-16
130    3.65569063e-06
131    -4.28639133e-07
132    -3.3407119e-06
133    -1.65055019e-05
134    -5.72911139e-05
135    -0.000129334947
136    -2.40849229e-05
137    -0.000195278165
138    -1.51180234e-06
139    -5.68213559e-06
140    -1.67848693e-15
141    -4.3824446e-05
142    -3.76240918e-06
143    2.61868237e-05
144    2.52333316e-15
145    0.000520478565
146    -6.19425147e-05
147    -0.000104828008
148    -1.47860096e-14
149    0.00120274458
150    -0.000467049643
151    -0.000398729967
152    -8.52018294e-14
153    0.000933500234
154    -0.000150658262
155    -0.000102122735
156    -9.52016838e-14
157    2.84220865e-05
158    -4.8884804e-17
159    3.77378958e-07
160    3.79508527e-16
161    8.37475515e-07
162    1.41421933e-05
163    0.00010955884
164    0.000546104189
165    0.00187737218
166    0.00442012087
167    0.00165794813
168    0.00600946459
169    -6.60893983e-05
170    0.000132688832
171    -2.02608303e-16
172    -0.000462153746
173    -0.000217504626
174    0.000478004453
175    -4.79746824e-16
176    0.000978499919
177    0.000142782486
178    -0.000550228997
179    5.99057944e-15
180    -7.28802061e-05
181    -0.000229624787
182    -0.000587453426
183    -2.68671615e-13
184    0.000229750872
185    0.000599270768
186    -0.000307417225
187    -2.51359843e-14
188    0.000256148455
189    -1.00079805e-15
190    1.39343402e-05
191    -1.74808902e-16
192    0.00020449698
193    -0.00110900579
194    -0.00858565808
195    -0.0428276628
196    -0.14704941
197    -0.347356963
198    -0.127005279
199    -0.464973482
200    0.000137506394
201    0.000356244188
202    -4.11571629e-16
203    -0.00202933248
204    -5.04616252e-05
205    -0.000313036456
206    3.93790037e-15
207    -0.00182743035
208    4.45850545e-05
209    -0.000189423094
210    -1.83091337e-14
211    -0.00935134866
212    -0.00455324294
213    0.00075450009
214    3.95598311e-13
215    -0.00112076436
216    -0.000310971336
217    0.000298267735
218    -5.38545936e-14
219    9.86503993e-05
220    -8.51806745e-16
221    0.000105773922
222    -5.67041791e-16
223    -5.86758125e-05
224    9.14905757e-06
225    7.08881488e-05
226    0.000353304061
227    0.00121497407
228    0.00285960721
229    0.0010967964
230    0.00390211951
231    0.000120758012
232    -9.58171526e-06
233    -8.28649594e-16
234    -0.000437927884
235    0.00055770868
236    4.30476154e-06
237    1.97580201e-15
238    0.000357931794
239    -0.000537498066
240    0.000119873854
241    4.53204018e-16
242    0.0104263751
243    -0.00298899373
244    -8.48730622e-05
245    -2.88286141e-13
246    -0.000475521807
247    1.68769988e-05
248    -0.000454502082
249    6.68331457e-14
250    -7.85543608e-06
251    -1.66725874e-16
252    3.86970444e-05
253    -1.1667286e-15
254    -0.000320393218
255    -4.6397554e-07
256    -3.60487847e-06
257    -1.78950503e-05
258    -6.17109362e-05
259    -0.000140402433
260    -1.05025789e-05
261    -0.000212479228
262    5.4116367e-06
263    -1.48732701e-05
264    1.63944653e-15
265    -0.000127836948
266    -9.34630659e-05
267    6.434013e-05
268    -1.03091656e-15
269    0.000577837089
270    0.00023172085
271    0.000102531921
272    6.81289883e-15
273    -0.00130924061
274    -0.000422640267
275    -0.000136484818
276    7.1791344e-15
277    0.000344627375
278    5.31248935e-05
279    2.65107009e-05
280    4.21518041e-14
281    9.03199192e-05
282    2.0407129e-16
283    -1.19494607e-05
284    -4.21046055e-16
285    3.0241926e-07
286    -1.38279436e-05
287    -3.73310843e-05
288    -0.000302435271
289    -0.000750983577
290    -1.7772716e-05
291    1.63300834e-05
292    2.08113879e-16
293    -1.85760226e-05
294    -5.8051454e-05
295    0.000154135556
296    -0.00020752294
297    -3.62392282e-05
298    -7.37808417e-06
299    3.86051299e-16
300    -2.99129802e-06
301    -5.03414663e-05
302    9.67383023e-05
303    0.000383647019
304    7.98243179e-06
305    1.21566382e-05
306    -5.28722292e-16
307    -5.14846627e-06
308    -6.2446461e-06
309    0.000120605732
310    -1.18166175e-05
311    -4.6047255e-06
312    -1.26598582e-05
313    -9.24466311e-17
314    -7.66792685e-06
315    -5.66281581e-05
316    5.63883398e-05
317    0.000225902643
318    1.91695546e-05
319    -3.53786091e-06
320    9.90840992e-16
[5D]