[Molden Format]
[Atoms] (Angs)
  N      1    7      1.94018933      0.52508494      0.00000000
  N      2    7     -0.02213269      1.91541175      0.00000000
  N      3    7     -1.17840874     -1.47034963     -0.00000000
  N      4    7     -2.06912523      0.58482266      0.00000000
  N      5    7      1.87296022     -1.79117643     -0.00000000
  C      6    6      1.29026180      1.69525713      0.00000000
  C      7    6     -0.70757697      0.77138093      0.00000000
  C      8    6     -0.17789318     -0.51725539     -0.00000000
  C      9    6      1.22552274     -0.60755281     -0.00000000
  C     10    6     -2.28299045     -0.77446763     -0.00000000
  H     11    1     -2.76356369      1.31172362      0.00000000
  H     12    1     -3.27766143     -1.18864608     -0.00000000
  H     13    1      1.92065024      2.57638112      0.00000000
  H     14    1      1.35622854     -2.65035184     -0.00000000
  H     15    1      2.87602238     -1.79983315     -0.00000000
[GTO]
1    0
S    6    1.000000
   6.29348000E+03    1.96979000E-03 
   9.49044000E+02    1.49613000E-02 
   2.18776000E+02    7.35006000E-02 
   6.36916000E+01    2.48937000E-01 
   1.88282000E+01    6.02460000E-01 
   2.72023000E+00    2.56202000E-01 
SP   3    1.000000
   3.06331000E+01    1.11906000E-01   3.83119000E-02 
   7.02614000E+00    9.21666000E-01   2.37403000E-01 
   2.11205000E+00   -2.56919000E-03   8.17592000E-01 
SP   1    1.000000
   6.84009000E-01    1.00000000E+00   1.00000000E+00 
SP   1    1.000000
   2.00878000E-01    1.00000000E+00   1.00000000E+00 
SP   1    1.000000
   6.39000000E-02    1.00000000E+00   1.00000000E+00 
SP   1    1.000000
   1.92469880E-02    1.00000000E+00   1.00000000E+00 
D    1    1.000000
   9.13000000E-01    1.00000000E+00 

2    0
S    6    1.000000
   6.29348000E+03    1.96979000E-03 
   9.49044000E+02    1.49613000E-02 
   2.18776000E+02    7.35006000E-02 
   6.36916000E+01    2.48937000E-01 
   1.88282000E+01    6.02460000E-01 
   2.72023000E+00    2.56202000E-01 
SP   3    1.000000
   3.06331000E+01    1.11906000E-01   3.83119000E-02 
   7.02614000E+00    9.21666000E-01   2.37403000E-01 
   2.11205000E+00   -2.56919000E-03   8.17592000E-01 
SP   1    1.000000
   6.84009000E-01    1.00000000E+00   1.00000000E+00 
SP   1    1.000000
   2.00878000E-01    1.00000000E+00   1.00000000E+00 
SP   1    1.000000
   6.39000000E-02    1.00000000E+00   1.00000000E+00 
SP   1    1.000000
   1.92469880E-02    1.00000000E+00   1.00000000E+00 
D    1    1.000000
   9.13000000E-01    1.00000000E+00 

3    0
S    6    1.000000
   6.29348000E+03    1.96979000E-03 
   9.49044000E+02    1.49613000E-02 
   2.18776000E+02    7.35006000E-02 
   6.36916000E+01    2.48937000E-01 
   1.88282000E+01    6.02460000E-01 
   2.72023000E+00    2.56202000E-01 
SP   3    1.000000
   3.06331000E+01    1.11906000E-01   3.83119000E-02 
   7.02614000E+00    9.21666000E-01   2.37403000E-01 
   2.11205000E+00   -2.56919000E-03   8.17592000E-01 
SP   1    1.000000
   6.84009000E-01    1.00000000E+00   1.00000000E+00 
SP   1    1.000000
   2.00878000E-01    1.00000000E+00   1.00000000E+00 
SP   1    1.000000
   6.39000000E-02    1.00000000E+00   1.00000000E+00 
SP   1    1.000000
   1.92469880E-02    1.00000000E+00   1.00000000E+00 
D    1    1.000000
   9.13000000E-01    1.00000000E+00 

4    0
S    6    1.000000
   6.29348000E+03    1.96979000E-03 
   9.49044000E+02    1.49613000E-02 
   2.18776000E+02    7.35006000E-02 
   6.36916000E+01    2.48937000E-01 
   1.88282000E+01    6.02460000E-01 
   2.72023000E+00    2.56202000E-01 
SP   3    1.000000
   3.06331000E+01    1.11906000E-01   3.83119000E-02 
   7.02614000E+00    9.21666000E-01   2.37403000E-01 
   2.11205000E+00   -2.56919000E-03   8.17592000E-01 
SP   1    1.000000
   6.84009000E-01    1.00000000E+00   1.00000000E+00 
SP   1    1.000000
   2.00878000E-01    1.00000000E+00   1.00000000E+00 
SP   1    1.000000
   6.39000000E-02    1.00000000E+00   1.00000000E+00 
SP   1    1.000000
   1.92469880E-02    1.00000000E+00   1.00000000E+00 
D    1    1.000000
   9.13000000E-01    1.00000000E+00 

5    0
S    6    1.000000
   6.29348000E+03    1.96979000E-03 
   9.49044000E+02    1.49613000E-02 
   2.18776000E+02    7.35006000E-02 
   6.36916000E+01    2.48937000E-01 
   1.88282000E+01    6.02460000E-01 
   2.72023000E+00    2.56202000E-01 
SP   3    1.000000
   3.06331000E+01    1.11906000E-01   3.83119000E-02 
   7.02614000E+00    9.21666000E-01   2.37403000E-01 
   2.11205000E+00   -2.56919000E-03   8.17592000E-01 
SP   1    1.000000
   6.84009000E-01    1.00000000E+00   1.00000000E+00 
SP   1    1.000000
   2.00878000E-01    1.00000000E+00   1.00000000E+00 
SP   1    1.000000
   6.39000000E-02    1.00000000E+00   1.00000000E+00 
SP   1    1.000000
   1.92469880E-02    1.00000000E+00   1.00000000E+00 
D    1    1.000000
   9.13000000E-01    1.00000000E+00 

6    0
S    1    1.000000
   4.56324000E+03    1.96665000E-03 
S    1    1.000000
   6.82024000E+02    1.52306000E-02 
S    1    1.000000
   1.54973000E+02    7.61269000E-02 
S    1    1.000000
   4.44553000E+01    2.60801000E-01 
S    1    1.000000
   1.30290000E+01    6.16462000E-01 
S    1    1.000000
   1.82773000E+00    2.21006000E-01 
SP   3    1.000000
   2.09642000E+01    1.14660000E-01   4.02487000E-02 
   4.80331000E+00    9.19999000E-01   2.37594000E-01 
   1.45933000E+00   -3.03068000E-03   8.15854000E-01 
SP   1    1.000000
   4.83456000E-01    1.00000000E+00   1.00000000E+00 
SP   1    1.000000
   1.45585000E-01    1.00000000E+00   1.00000000E+00 
SP   1    1.000000
   4.38000000E-02    1.00000000E+00   1.00000000E+00 
SP   1    1.000000
   1.31927711E-02    1.00000000E+00   1.00000000E+00 
D    1    1.000000
   6.26000000E-01    1.00000000E+00 

7    0
S    1    1.000000
   4.56324000E+03    1.96665000E-03 
S    1    1.000000
   6.82024000E+02    1.52306000E-02 
S    1    1.000000
   1.54973000E+02    7.61269000E-02 
S    1    1.000000
   4.44553000E+01    2.60801000E-01 
S    1    1.000000
   1.30290000E+01    6.16462000E-01 
S    1    1.000000
   1.82773000E+00    2.21006000E-01 
SP   3    1.000000
   2.09642000E+01    1.14660000E-01   4.02487000E-02 
   4.80331000E+00    9.19999000E-01   2.37594000E-01 
   1.45933000E+00   -3.03068000E-03   8.15854000E-01 
SP   1    1.000000
   4.83456000E-01    1.00000000E+00   1.00000000E+00 
SP   1    1.000000
   1.45585000E-01    1.00000000E+00   1.00000000E+00 
SP   1    1.000000
   4.38000000E-02    1.00000000E+00   1.00000000E+00 
SP   1    1.000000
   1.31927711E-02    1.00000000E+00   1.00000000E+00 
D    1    1.000000
   6.26000000E-01    1.00000000E+00 

8    0
S    1    1.000000
   4.56324000E+03    1.96665000E-03 
S    1    1.000000
   6.82024000E+02    1.52306000E-02 
S    1    1.000000
   1.54973000E+02    7.61269000E-02 
S    1    1.000000
   4.44553000E+01    2.60801000E-01 
S    1    1.000000
   1.30290000E+01    6.16462000E-01 
S    1    1.000000
   1.82773000E+00    2.21006000E-01 
SP   3    1.000000
   2.09642000E+01    1.14660000E-01   4.02487000E-02 
   4.80331000E+00    9.19999000E-01   2.37594000E-01 
   1.45933000E+00   -3.03068000E-03   8.15854000E-01 
SP   1    1.000000
   4.83456000E-01    1.00000000E+00   1.00000000E+00 
SP   1    1.000000
   1.45585000E-01    1.00000000E+00   1.00000000E+00 
SP   1    1.000000
   4.38000000E-02    1.00000000E+00   1.00000000E+00 
SP   1    1.000000
   1.31927711E-02    1.00000000E+00   1.00000000E+00 
D    1    1.000000
   6.26000000E-01    1.00000000E+00 

9    0
S    1    1.000000
   4.56324000E+03    1.96665000E-03 
S    1    1.000000
   6.82024000E+02    1.52306000E-02 
S    1    1.000000
   1.54973000E+02    7.61269000E-02 
S    1    1.000000
   4.44553000E+01    2.60801000E-01 
S    1    1.000000
   1.30290000E+01    6.16462000E-01 
S    1    1.000000
   1.82773000E+00    2.21006000E-01 
SP   3    1.000000
   2.09642000E+01    1.14660000E-01   4.02487000E-02 
   4.80331000E+00    9.19999000E-01   2.37594000E-01 
   1.45933000E+00   -3.03068000E-03   8.15854000E-01 
SP   1    1.000000
   4.83456000E-01    1.00000000E+00   1.00000000E+00 
SP   1    1.000000
   1.45585000E-01    1.00000000E+00   1.00000000E+00 
SP   1    1.000000
   4.38000000E-02    1.00000000E+00   1.00000000E+00 
SP   1    1.000000
   1.31927711E-02    1.00000000E+00   1.00000000E+00 
D    1    1.000000
   6.26000000E-01    1.00000000E+00 

10    0
S    1    1.000000
   4.56324000E+03    1.96665000E-03 
S    1    1.000000
   6.82024000E+02    1.52306000E-02 
S    1    1.000000
   1.54973000E+02    7.61269000E-02 
S    1    1.000000
   4.44553000E+01    2.60801000E-01 
S    1    1.000000
   1.30290000E+01    6.16462000E-01 
S    1    1.000000
   1.82773000E+00    2.21006000E-01 
SP   3    1.000000
   2.09642000E+01    1.14660000E-01   4.02487000E-02 
   4.80331000E+00    9.19999000E-01   2.37594000E-01 
   1.45933000E+00   -3.03068000E-03   8.15854000E-01 
SP   1    1.000000
   4.83456000E-01    1.00000000E+00   1.00000000E+00 
SP   1    1.000000
   1.45585000E-01    1.00000000E+00   1.00000000E+00 
SP   1    1.000000
   4.38000000E-02    1.00000000E+00   1.00000000E+00 
SP   1    1.000000
   1.31927711E-02    1.00000000E+00   1.00000000E+00 
D    1    1.000000
   6.26000000E-01    1.00000000E+00 

11    0
S    3    1.000000
   3.38650000E+01    2.54938000E-02 
   5.09479000E+00    1.90373000E-01 
   1.15879000E+00    8.52161000E-01 
S    1    1.000000
   3.25840000E-01    1.00000000E+00 
S    1    1.000000
   1.02741000E-01    1.00000000E+00 
S    1    1.000000
   3.60000000E-02    1.00000000E+00 
P    1    1.000000
   7.50000000E-01    1.00000000E+00 

12    0
S    3    1.000000
   3.38650000E+01    2.54938000E-02 
   5.09479000E+00    1.90373000E-01 
   1.15879000E+00    8.52161000E-01 
S    1    1.000000
   3.25840000E-01    1.00000000E+00 
S    1    1.000000
   1.02741000E-01    1.00000000E+00 
S    1    1.000000
   3.60000000E-02    1.00000000E+00 
P    1    1.000000
   7.50000000E-01    1.00000000E+00 

13    0
S    3    1.000000
   3.38650000E+01    2.54938000E-02 
   5.09479000E+00    1.90373000E-01 
   1.15879000E+00    8.52161000E-01 
S    1    1.000000
   3.25840000E-01    1.00000000E+00 
S    1    1.000000
   1.02741000E-01    1.00000000E+00 
S    1    1.000000
   3.60000000E-02    1.00000000E+00 
P    1    1.000000
   7.50000000E-01    1.00000000E+00 

14    0
S    3    1.000000
   3.38650000E+01    2.54938000E-02 
   5.09479000E+00    1.90373000E-01 
   1.15879000E+00    8.52161000E-01 
S    1    1.000000
   3.25840000E-01    1.00000000E+00 
S    1    1.000000
   1.02741000E-01    1.00000000E+00 
S    1    1.000000
   3.60000000E-02    1.00000000E+00 
P    1    1.000000
   7.50000000E-01    1.00000000E+00 

15    0
S    3    1.000000
   3.38650000E+01    2.54938000E-02 
   5.09479000E+00    1.90373000E-01 
   1.15879000E+00    8.52161000E-01 
S    1    1.000000
   3.25840000E-01    1.00000000E+00 
S    1    1.000000
   1.02741000E-01    1.00000000E+00 
S    1    1.000000
   3.60000000E-02    1.00000000E+00 
P    1    1.000000
   7.50000000E-01    1.00000000E+00 

[MO]
Sym=X
Ene=0.919896
Spin=Alpha
Occup=1
1    -1.5971462e-08
2    -2.98444755e-07
3    3.10804208e-06
4    -2.64078452e-07
5    -3.46007828e-16
6    -9.20081695e-06
7    -1.27375624e-05
8    6.21444841e-07
9    -1.44606737e-15
10    0.000249431901
11    -0.00012588349
12    9.55306766e-06
13    -2.05814301e-15
14    0.000649037132
15    -0.000289582055
16    7.29899258e-05
17    2.20784269e-14
18    0.000581451767
19    -0.000254166664
20    0.000210834229
21    1.28644021e-14
22    1.06987209e-06
23    -2.26902401e-16
24    -2.39348225e-06
25    2.39219217e-16
26    3.44852952e-06
27    -1.85468838e-07
28    -5.4723418e-06
29    6.8605562e-06
30    2.62983314e-06
31    -1.41977852e-15
32    5.17074454e-05
33    -3.92398958e-05
34    -2.27830943e-05
35    -6.13038445e-16
36    -0.000405327232
37    0.000168599418
38    0.000167687092
39    -6.71444593e-15
40    -0.000846600282
41    6.00465141e-05
42    0.000219048087
43    2.90932904e-14
44    -0.000814520249
45    -5.82107666e-05
46    0.000245066062
47    4.75545066e-14
48    7.86037542e-06
49    3.43443144e-16
50    8.32361433e-07
51    -1.88467779e-16
52    -2.77398407e-06
53    -0.000220828964
54    -0.00029372947
55    -0.000144108836
56    0.00010159919
57    5.33923087e-16
58    0.000418406926
59    -0.000480162276
60    0.000242320786
61    -6.83015327e-16
62    -0.000172558754
63    0.000177901873
64    -0.000145802082
65    5.18336095e-15
66    0.000852178501
67    -0.000455949304
68    0.00035878676
69    -3.16099003e-14
70    6.65401823e-06
71    -0.000134412284
72    -0.000102779834
73    4.39659396e-14
74    -0.000251946919
75    1.0167615e-16
76    -6.30626953e-05
77    -5.16033361e-17
78    8.93479765e-05
79    -0.000151965944
80    -0.000230521034
81    -1.73779649e-05
82    -8.50385165e-05
83    -9.76369448e-16
84    0.000375774981
85    -0.00015905588
86    -0.000765786141
87    2.05182386e-15
88    0.000388953269
89    0.000280451207
90    -0.000129978006
91    -7.1066974e-15
92    -0.00038487657
93    1.93106464e-05
94    0.000378751696
95    2.8772337e-14
96    0.000389830736
97    0.000129110159
98    -5.73993353e-05
99    -2.88674976e-14
100    0.000147877781
101    1.0749816e-16
102    -0.000111988205
103    -2.75149795e-17
104    -0.000324172609
105    -1.65775688e-07
106    -1.95901259e-06
107    6.53320691e-07
108    -2.86481507e-06
109    1.4101996e-16
110    1.76889496e-05
111    -6.76155139e-06
112    1.60413151e-05
113    1.05738788e-15
114    -0.000197084725
115    -2.39630067e-05
116    -0.000101903937
117    -7.30121056e-16
118    -0.000282136264
119    7.44878518e-05
120    -9.83728149e-05
121    1.10199214e-14
122    -2.63611708e-05
123    0.000221591572
124    -7.57060122e-06
125    -3.15924403e-14
126    -3.89334108e-06
127    -3.32445776e-17
128    1.2421068e-06
129    -3.41092804e-18
130    -4.49843847e-06
131    8.94084752e-08
132    7.03191129e-07
133    3.42776104e-06
134    1.20785316e-05
135    2.56444759e-05
136    -2.12304667e-06
137    4.42962305e-05
138    5.04674712e-06
139    -9.07611841e-07
140    -1.85297767e-15
141    3.66219202e-05
142    -2.8240584e-05
143    5.34737621e-06
144    -6.02818842e-16
145    -0.000269298398
146    0.000130227459
147    0.000153716478
148    -6.2434721e-15
149    -0.000797812655
150    0.000401661985
151    0.000530378719
152    -2.20250818e-14
153    -0.0014163527
154    0.000289692896
155    6.13141393e-05
156    -6.69778149e-14
157    2.16990543e-06
158    -1.15459012e-16
159    8.8916892e-06
160    1.08866237e-16
161    1.24354725e-05
162    -3.96546166e-06
163    -3.06785018e-05
164    -0.000153179095
165    -0.000525404987
166    -0.00124810715
167    -0.000494797237
168    -0.00164163206
169    2.35330757e-05
170    -1.79967602e-06
171    -1.04392897e-15
172    0.000106246911
173    -9.06072077e-05
174    -8.51030569e-06
175    4.79122342e-17
176    -0.000650170898
177    0.000567691754
178    0.000963035243
179    -4.222723e-15
180    0.00607601879
181    0.00103976217
182    -0.00095737818
183    -9.39276557e-14
184    -0.000380387906
185    0.000376426889
186    0.00043795979
187    8.53237822e-14
188    -5.08887933e-06
189    -6.05838158e-16
190    7.83596e-06
191    -3.74418698e-16
192    5.14011345e-05
193    -4.75587113e-07
194    -3.67674501e-06
195    -1.83710041e-05
196    -6.30136195e-05
197    -0.000151942593
198    -8.3397011e-05
199    -0.000187024103
200    1.2588293e-05
201    1.4764233e-05
202    -6.68328064e-17
203    7.98513766e-05
204    -0.000107640908
205    -5.28224938e-05
206    -3.90782007e-16
207    0.000804495445
208    0.000416260269
209    0.000461113102
210    -6.78263393e-16
211    0.00236098703
212    0.00473024539
213    -0.00169482738
214    1.11789453e-13
215    0.00105824189
216    -0.000100368921
217    2.97952646e-05
218    -2.29048044e-13
219    5.12382799e-05
220    -3.8825319e-16
221    7.28922419e-06
222    6.62060804e-16
223    -4.09379559e-05
224    7.21481035e-08
225    5.90485832e-07
226    2.71208283e-06
227    1.02167504e-05
228    1.59081829e-05
229    -2.61228545e-05
230    4.8762774e-05
231    6.84790168e-06
232    1.32891316e-06
233    -6.93039303e-16
234    9.65058332e-05
235    -6.58582386e-05
236    -2.09458669e-06
237    1.54364376e-15
238    -0.000594731783
239    0.000426200959
240    -0.000437353071
241    -6.71852344e-15
242    -0.00853596745
243    0.0024107057
244    -0.000207113638
245    -6.0582383e-14
246    0.000606818086
247    -0.000205082189
248    0.000113119381
249    1.60395464e-13
250    7.81045225e-06
251    -4.66271825e-16
252    7.77629526e-07
253    3.25901922e-16
254    2.83021573e-05
255    0.00110937164
256    0.00858832287
257    0.0428423731
258    0.147091402
259    0.347480425
260    0.12668049
261    0.465309525
262    0.000110009983
263    0.000813630596
264    7.73974968e-16
265    0.00170503799
266    0.000138005566
267    -0.000664324606
268    -1.1060753e-15
269    0.000773785806
270    0.000682956782
271    0.000566977713
272    4.3152073e-15
273    0.00170242507
274    0.000494647904
275    0.000392337051
276    -1.05313272e-14
277    8.94723646e-05
278    -7.14067097e-05
279    0.00015738091
280    3.31101935e-14
281    -0.00011930194
282    -2.14335583e-16
283    -0.00015446643
284    -9.64364196e-17
285    0.000239617384
286    1.6823853e-05
287    0.000180734451
288    -0.000128881197
289    3.57935242e-05
290    4.54246712e-05
291    -7.38590453e-05
292    -2.73317189e-16
293    0.000347420712
294    0.000448083482
295    0.000290558776
296    9.48939892e-06
297    0.000260012929
298    9.42516117e-05
299    1.57430208e-16
300    4.57245462e-06
301    -1.25956229e-05
302    -0.000166860553
303    -0.000507066763
304    -4.87542405e-07
305    1.29952028e-06
306    -6.12985081e-16
307    -1.06973983e-06
308    -4.55754655e-06
309    -3.79708711e-05
310    3.67398871e-05
311    -3.31021925e-06
312    1.02520834e-06
313    1.50504872e-16
314    -6.32900629e-07
315    4.1033918e-05
316    -5.47673977e-05
317    -0.000310344282
318    -6.74117177e-06
319    -6.4467543e-07
320    2.96029557e-16
[5D]