[Molden Format]
[Atoms] (Angs)
  N      1    7      1.94018933      0.52508494      0.00000000
  N      2    7     -0.02213269      1.91541175      0.00000000
  N      3    7     -1.17840874     -1.47034963     -0.00000000
  N      4    7     -2.06912523      0.58482266      0.00000000
  N      5    7      1.87296022     -1.79117643     -0.00000000
  C      6    6      1.29026180      1.69525713      0.00000000
  C      7    6     -0.70757697      0.77138093      0.00000000
  C      8    6     -0.17789318     -0.51725539     -0.00000000
  C      9    6      1.22552274     -0.60755281     -0.00000000
  C     10    6     -2.28299045     -0.77446763     -0.00000000
  H     11    1     -2.76356369      1.31172362      0.00000000
  H     12    1     -3.27766143     -1.18864608     -0.00000000
  H     13    1      1.92065024      2.57638112      0.00000000
  H     14    1      1.35622854     -2.65035184     -0.00000000
  H     15    1      2.87602238     -1.79983315     -0.00000000
[GTO]
1    0
S    6    1.000000
   6.29348000E+03    1.96979000E-03 
   9.49044000E+02    1.49613000E-02 
   2.18776000E+02    7.35006000E-02 
   6.36916000E+01    2.48937000E-01 
   1.88282000E+01    6.02460000E-01 
   2.72023000E+00    2.56202000E-01 
SP   3    1.000000
   3.06331000E+01    1.11906000E-01   3.83119000E-02 
   7.02614000E+00    9.21666000E-01   2.37403000E-01 
   2.11205000E+00   -2.56919000E-03   8.17592000E-01 
SP   1    1.000000
   6.84009000E-01    1.00000000E+00   1.00000000E+00 
SP   1    1.000000
   2.00878000E-01    1.00000000E+00   1.00000000E+00 
SP   1    1.000000
   6.39000000E-02    1.00000000E+00   1.00000000E+00 
SP   1    1.000000
   1.92469880E-02    1.00000000E+00   1.00000000E+00 
D    1    1.000000
   9.13000000E-01    1.00000000E+00 

2    0
S    6    1.000000
   6.29348000E+03    1.96979000E-03 
   9.49044000E+02    1.49613000E-02 
   2.18776000E+02    7.35006000E-02 
   6.36916000E+01    2.48937000E-01 
   1.88282000E+01    6.02460000E-01 
   2.72023000E+00    2.56202000E-01 
SP   3    1.000000
   3.06331000E+01    1.11906000E-01   3.83119000E-02 
   7.02614000E+00    9.21666000E-01   2.37403000E-01 
   2.11205000E+00   -2.56919000E-03   8.17592000E-01 
SP   1    1.000000
   6.84009000E-01    1.00000000E+00   1.00000000E+00 
SP   1    1.000000
   2.00878000E-01    1.00000000E+00   1.00000000E+00 
SP   1    1.000000
   6.39000000E-02    1.00000000E+00   1.00000000E+00 
SP   1    1.000000
   1.92469880E-02    1.00000000E+00   1.00000000E+00 
D    1    1.000000
   9.13000000E-01    1.00000000E+00 

3    0
S    6    1.000000
   6.29348000E+03    1.96979000E-03 
   9.49044000E+02    1.49613000E-02 
   2.18776000E+02    7.35006000E-02 
   6.36916000E+01    2.48937000E-01 
   1.88282000E+01    6.02460000E-01 
   2.72023000E+00    2.56202000E-01 
SP   3    1.000000
   3.06331000E+01    1.11906000E-01   3.83119000E-02 
   7.02614000E+00    9.21666000E-01   2.37403000E-01 
   2.11205000E+00   -2.56919000E-03   8.17592000E-01 
SP   1    1.000000
   6.84009000E-01    1.00000000E+00   1.00000000E+00 
SP   1    1.000000
   2.00878000E-01    1.00000000E+00   1.00000000E+00 
SP   1    1.000000
   6.39000000E-02    1.00000000E+00   1.00000000E+00 
SP   1    1.000000
   1.92469880E-02    1.00000000E+00   1.00000000E+00 
D    1    1.000000
   9.13000000E-01    1.00000000E+00 

4    0
S    6    1.000000
   6.29348000E+03    1.96979000E-03 
   9.49044000E+02    1.49613000E-02 
   2.18776000E+02    7.35006000E-02 
   6.36916000E+01    2.48937000E-01 
   1.88282000E+01    6.02460000E-01 
   2.72023000E+00    2.56202000E-01 
SP   3    1.000000
   3.06331000E+01    1.11906000E-01   3.83119000E-02 
   7.02614000E+00    9.21666000E-01   2.37403000E-01 
   2.11205000E+00   -2.56919000E-03   8.17592000E-01 
SP   1    1.000000
   6.84009000E-01    1.00000000E+00   1.00000000E+00 
SP   1    1.000000
   2.00878000E-01    1.00000000E+00   1.00000000E+00 
SP   1    1.000000
   6.39000000E-02    1.00000000E+00   1.00000000E+00 
SP   1    1.000000
   1.92469880E-02    1.00000000E+00   1.00000000E+00 
D    1    1.000000
   9.13000000E-01    1.00000000E+00 

5    0
S    6    1.000000
   6.29348000E+03    1.96979000E-03 
   9.49044000E+02    1.49613000E-02 
   2.18776000E+02    7.35006000E-02 
   6.36916000E+01    2.48937000E-01 
   1.88282000E+01    6.02460000E-01 
   2.72023000E+00    2.56202000E-01 
SP   3    1.000000
   3.06331000E+01    1.11906000E-01   3.83119000E-02 
   7.02614000E+00    9.21666000E-01   2.37403000E-01 
   2.11205000E+00   -2.56919000E-03   8.17592000E-01 
SP   1    1.000000
   6.84009000E-01    1.00000000E+00   1.00000000E+00 
SP   1    1.000000
   2.00878000E-01    1.00000000E+00   1.00000000E+00 
SP   1    1.000000
   6.39000000E-02    1.00000000E+00   1.00000000E+00 
SP   1    1.000000
   1.92469880E-02    1.00000000E+00   1.00000000E+00 
D    1    1.000000
   9.13000000E-01    1.00000000E+00 

6    0
S    1    1.000000
   4.56324000E+03    1.96665000E-03 
S    1    1.000000
   6.82024000E+02    1.52306000E-02 
S    1    1.000000
   1.54973000E+02    7.61269000E-02 
S    1    1.000000
   4.44553000E+01    2.60801000E-01 
S    1    1.000000
   1.30290000E+01    6.16462000E-01 
S    1    1.000000
   1.82773000E+00    2.21006000E-01 
SP   3    1.000000
   2.09642000E+01    1.14660000E-01   4.02487000E-02 
   4.80331000E+00    9.19999000E-01   2.37594000E-01 
   1.45933000E+00   -3.03068000E-03   8.15854000E-01 
SP   1    1.000000
   4.83456000E-01    1.00000000E+00   1.00000000E+00 
SP   1    1.000000
   1.45585000E-01    1.00000000E+00   1.00000000E+00 
SP   1    1.000000
   4.38000000E-02    1.00000000E+00   1.00000000E+00 
SP   1    1.000000
   1.31927711E-02    1.00000000E+00   1.00000000E+00 
D    1    1.000000
   6.26000000E-01    1.00000000E+00 

7    0
S    1    1.000000
   4.56324000E+03    1.96665000E-03 
S    1    1.000000
   6.82024000E+02    1.52306000E-02 
S    1    1.000000
   1.54973000E+02    7.61269000E-02 
S    1    1.000000
   4.44553000E+01    2.60801000E-01 
S    1    1.000000
   1.30290000E+01    6.16462000E-01 
S    1    1.000000
   1.82773000E+00    2.21006000E-01 
SP   3    1.000000
   2.09642000E+01    1.14660000E-01   4.02487000E-02 
   4.80331000E+00    9.19999000E-01   2.37594000E-01 
   1.45933000E+00   -3.03068000E-03   8.15854000E-01 
SP   1    1.000000
   4.83456000E-01    1.00000000E+00   1.00000000E+00 
SP   1    1.000000
   1.45585000E-01    1.00000000E+00   1.00000000E+00 
SP   1    1.000000
   4.38000000E-02    1.00000000E+00   1.00000000E+00 
SP   1    1.000000
   1.31927711E-02    1.00000000E+00   1.00000000E+00 
D    1    1.000000
   6.26000000E-01    1.00000000E+00 

8    0
S    1    1.000000
   4.56324000E+03    1.96665000E-03 
S    1    1.000000
   6.82024000E+02    1.52306000E-02 
S    1    1.000000
   1.54973000E+02    7.61269000E-02 
S    1    1.000000
   4.44553000E+01    2.60801000E-01 
S    1    1.000000
   1.30290000E+01    6.16462000E-01 
S    1    1.000000
   1.82773000E+00    2.21006000E-01 
SP   3    1.000000
   2.09642000E+01    1.14660000E-01   4.02487000E-02 
   4.80331000E+00    9.19999000E-01   2.37594000E-01 
   1.45933000E+00   -3.03068000E-03   8.15854000E-01 
SP   1    1.000000
   4.83456000E-01    1.00000000E+00   1.00000000E+00 
SP   1    1.000000
   1.45585000E-01    1.00000000E+00   1.00000000E+00 
SP   1    1.000000
   4.38000000E-02    1.00000000E+00   1.00000000E+00 
SP   1    1.000000
   1.31927711E-02    1.00000000E+00   1.00000000E+00 
D    1    1.000000
   6.26000000E-01    1.00000000E+00 

9    0
S    1    1.000000
   4.56324000E+03    1.96665000E-03 
S    1    1.000000
   6.82024000E+02    1.52306000E-02 
S    1    1.000000
   1.54973000E+02    7.61269000E-02 
S    1    1.000000
   4.44553000E+01    2.60801000E-01 
S    1    1.000000
   1.30290000E+01    6.16462000E-01 
S    1    1.000000
   1.82773000E+00    2.21006000E-01 
SP   3    1.000000
   2.09642000E+01    1.14660000E-01   4.02487000E-02 
   4.80331000E+00    9.19999000E-01   2.37594000E-01 
   1.45933000E+00   -3.03068000E-03   8.15854000E-01 
SP   1    1.000000
   4.83456000E-01    1.00000000E+00   1.00000000E+00 
SP   1    1.000000
   1.45585000E-01    1.00000000E+00   1.00000000E+00 
SP   1    1.000000
   4.38000000E-02    1.00000000E+00   1.00000000E+00 
SP   1    1.000000
   1.31927711E-02    1.00000000E+00   1.00000000E+00 
D    1    1.000000
   6.26000000E-01    1.00000000E+00 

10    0
S    1    1.000000
   4.56324000E+03    1.96665000E-03 
S    1    1.000000
   6.82024000E+02    1.52306000E-02 
S    1    1.000000
   1.54973000E+02    7.61269000E-02 
S    1    1.000000
   4.44553000E+01    2.60801000E-01 
S    1    1.000000
   1.30290000E+01    6.16462000E-01 
S    1    1.000000
   1.82773000E+00    2.21006000E-01 
SP   3    1.000000
   2.09642000E+01    1.14660000E-01   4.02487000E-02 
   4.80331000E+00    9.19999000E-01   2.37594000E-01 
   1.45933000E+00   -3.03068000E-03   8.15854000E-01 
SP   1    1.000000
   4.83456000E-01    1.00000000E+00   1.00000000E+00 
SP   1    1.000000
   1.45585000E-01    1.00000000E+00   1.00000000E+00 
SP   1    1.000000
   4.38000000E-02    1.00000000E+00   1.00000000E+00 
SP   1    1.000000
   1.31927711E-02    1.00000000E+00   1.00000000E+00 
D    1    1.000000
   6.26000000E-01    1.00000000E+00 

11    0
S    3    1.000000
   3.38650000E+01    2.54938000E-02 
   5.09479000E+00    1.90373000E-01 
   1.15879000E+00    8.52161000E-01 
S    1    1.000000
   3.25840000E-01    1.00000000E+00 
S    1    1.000000
   1.02741000E-01    1.00000000E+00 
S    1    1.000000
   3.60000000E-02    1.00000000E+00 
P    1    1.000000
   7.50000000E-01    1.00000000E+00 

12    0
S    3    1.000000
   3.38650000E+01    2.54938000E-02 
   5.09479000E+00    1.90373000E-01 
   1.15879000E+00    8.52161000E-01 
S    1    1.000000
   3.25840000E-01    1.00000000E+00 
S    1    1.000000
   1.02741000E-01    1.00000000E+00 
S    1    1.000000
   3.60000000E-02    1.00000000E+00 
P    1    1.000000
   7.50000000E-01    1.00000000E+00 

13    0
S    3    1.000000
   3.38650000E+01    2.54938000E-02 
   5.09479000E+00    1.90373000E-01 
   1.15879000E+00    8.52161000E-01 
S    1    1.000000
   3.25840000E-01    1.00000000E+00 
S    1    1.000000
   1.02741000E-01    1.00000000E+00 
S    1    1.000000
   3.60000000E-02    1.00000000E+00 
P    1    1.000000
   7.50000000E-01    1.00000000E+00 

14    0
S    3    1.000000
   3.38650000E+01    2.54938000E-02 
   5.09479000E+00    1.90373000E-01 
   1.15879000E+00    8.52161000E-01 
S    1    1.000000
   3.25840000E-01    1.00000000E+00 
S    1    1.000000
   1.02741000E-01    1.00000000E+00 
S    1    1.000000
   3.60000000E-02    1.00000000E+00 
P    1    1.000000
   7.50000000E-01    1.00000000E+00 

15    0
S    3    1.000000
   3.38650000E+01    2.54938000E-02 
   5.09479000E+00    1.90373000E-01 
   1.15879000E+00    8.52161000E-01 
S    1    1.000000
   3.25840000E-01    1.00000000E+00 
S    1    1.000000
   1.02741000E-01    1.00000000E+00 
S    1    1.000000
   3.60000000E-02    1.00000000E+00 
P    1    1.000000
   7.50000000E-01    1.00000000E+00 

[MO]
Sym=X
Ene=0.922106
Spin=Alpha
Occup=1
1    -3.88026476e-06
2    1.35939344e-06
3    -1.28464448e-05
4    -2.20098854e-06
5    -3.89900198e-16
6    -4.08989548e-05
7    3.73054628e-05
8    1.95782476e-05
9    2.10883388e-15
10    0.000176670228
11    -7.72398185e-05
12    -4.28748289e-05
13    -6.50122769e-15
14    -3.06116645e-05
15    0.000249662781
16    -7.59216033e-05
17    5.59106177e-14
18    3.68239874e-05
19    0.000110570308
20    0.000204394568
21    5.15883193e-14
22    -1.48586113e-06
23    1.51772386e-16
24    5.70626942e-06
25    -4.50574051e-16
26    -7.13739989e-06
27    0.000182096091
28    0.000249809233
29    6.29238352e-05
30    0.000136232419
31    1.06887233e-16
32    -0.000373983132
33    0.000349023016
34    0.000463256492
35    2.70638901e-15
36    -3.47228772e-05
37    -7.44972444e-05
38    -9.29461393e-05
39    -4.505179e-15
40    -0.000695530885
41    -0.000389087775
42    0.000285944667
43    4.88007973e-14
44    -0.0012918054
45    -0.000135100397
46    1.33854774e-05
47    4.11932174e-14
48    -0.000231629622
49    -2.10071432e-16
50    7.89377707e-05
51    -1.02790564e-16
52    0.000164603651
53    -3.15533444e-06
54    9.16887452e-06
55    9.03716892e-06
56    2.29181925e-05
57    1.46752451e-15
58    -5.29365017e-05
59    -4.2237688e-05
60    -8.67894047e-05
61    -1.28551261e-15
62    -0.00029307541
63    0.000150980565
64    -0.00013172723
65    1.08055479e-14
66    -0.00077064089
67    -7.44927364e-05
68    -0.000143713142
69    -5.00752276e-14
70    -0.00111921914
71    -0.000797964855
72    -3.37923675e-05
73    -1.32526214e-14
74    -1.88115759e-05
75    5.88663722e-16
76    1.82297583e-05
77    -1.05066546e-16
78    1.9965503e-05
79    0.000151424628
80    0.000233775826
81    -8.98876349e-05
82    -4.52005327e-06
83    1.0969116e-15
84    -0.000433351527
85    -0.000754882852
86    -0.000180402106
87    1.88320548e-15
88    0.00010515912
89    5.69400575e-05
90    0.000112463578
91    1.2237629e-15
92    0.00191907242
93    1.26835947e-05
94    0.00110633283
95    1.91406927e-14
96    0.0016591928
97    0.000707783237
98    0.00059903344
99    -2.61160559e-14
100    -0.000172575803
101    -3.18532902e-16
102    0.000101441121
103    2.77015003e-16
104    -0.00031349214
105    4.34772326e-07
106    2.11662978e-06
107    -5.29773373e-06
108    1.10435321e-06
109    -6.24395722e-16
110    -3.32598732e-06
111    2.63590231e-05
112    -1.59067373e-05
113    1.27608086e-15
114    -0.000172816106
115    -2.2733029e-05
116    -4.47599369e-05
117    -5.90266694e-15
118    -0.000291257828
119    -0.000252248273
120    -4.63037629e-05
121    3.1533745e-14
122    0.00104104521
123    -0.000502628106
124    -3.89533712e-05
125    -1.07045243e-14
126    1.27624328e-05
127    1.25166171e-16
128    2.36236746e-06
129    -4.57581713e-17
130    -7.64488511e-06
131    2.65632136e-06
132    2.05185205e-05
133    0.00010268363
134    0.000351313977
135    0.000843103993
136    0.000369647092
137    0.00108022927
138    -1.86535796e-05
139    -2.82361173e-06
140    -1.04675879e-16
141    -0.000142923807
142    0.000137343182
143    3.35609017e-05
144    3.37004314e-15
145    0.000339502344
146    -0.000113239522
147    3.06285623e-05
148    -7.7336853e-15
149    -0.000399173606
150    -0.000140579139
151    -5.88936565e-05
152    -3.64221438e-14
153    -6.78870982e-05
154    -0.000493953697
155    0.000231476033
156    -6.88714334e-14
157    4.06443569e-05
158    -5.26911577e-17
159    -4.99849633e-06
160    -4.54456391e-16
161    -6.9179988e-05
162    -0.00110922185
163    -0.00858720553
164    -0.042836418
165    -0.147072374
166    -0.347428208
167    -0.12669512
168    -0.465223843
169    0.000934317992
170    -0.000444520345
171    5.11094975e-16
172    -0.00187062611
173    -0.00081151116
174    0.000396901357
175    3.95420925e-15
176    -0.00169095888
177    0.000636457448
178    0.000157471474
179    6.62318501e-17
180    0.00195123995
181    0.00330452343
182    -0.00110757791
183    -1.2043014e-13
184    0.000705382411
185    0.000889459997
186    -0.000413008283
187    3.76782069e-14
188    1.30266394e-05
189    -5.09915484e-16
190    0.000234613142
191    3.79609697e-16
192    0.000258205346
193    -1.36630138e-05
194    -0.000105645155
195    -0.000527817941
196    -0.00180833161
197    -0.00430166887
198    -0.0016015523
199    -0.00561655406
200    5.02650431e-05
201    -0.000126151844
202    6.17747106e-16
203    -0.000322412598
204    0.000177941274
205    -0.000339434285
206    2.59000971e-15
207    0.000770147517
208    -0.000431196659
209    0.000457130171
210    -2.88444148e-15
211    -0.0142398783
212    -0.00717764697
213    -0.00104949867
214    1.9562484e-13
215    -0.000721427342
216    -0.000454809624
217    -0.00131301246
218    -3.59813949e-14
219    0.000155892944
220    1.73331042e-16
221    -3.60312577e-05
222    -4.70704115e-16
223    0.000223567272
224    2.52338826e-07
225    1.89096638e-06
226    9.88485841e-06
227    3.21989745e-05
228    9.28729426e-05
229    0.000103980358
230    6.47939681e-05
231    -2.55553991e-05
232    7.73039889e-06
233    -5.06133637e-16
234    -0.000149016395
235    0.00016720907
236    -3.69104168e-05
237    2.1143222e-15
238    0.000209212763
239    -0.000112658314
240    -0.000278387674
241    -4.0801922e-16
242    0.01403066
243    -0.00335156583
244    8.54912666e-05
245    -1.57807246e-13
246    -1.77980359e-05
247    0.000588307843
248    0.000673016009
249    2.19002746e-14
250    3.79544632e-05
251    1.89225557e-16
252    1.41721545e-05
253    -6.56160768e-16
254    -7.64530515e-05
255    -4.00667631e-06
256    -3.10318714e-05
257    -0.000154708043
258    -0.000531478846
259    -0.00125041672
260    -0.000424013177
261    -0.00169741524
262    -6.61004184e-06
263    1.58882901e-05
264    7.82428706e-16
265    -8.72238785e-05
266    1.39484101e-05
267    -0.000100546189
268    1.8390114e-15
269    0.000649786318
270    0.000252443012
271    6.30020535e-05
272    1.67714556e-15
273    -0.00176136795
274    -0.000755778551
275    0.000158609852
276    9.68995312e-15
277    -3.6627207e-05
278    -0.000239853614
279    0.000523332643
280    8.47472791e-15
281    3.09566897e-06
282    2.22812826e-16
283    -1.42074126e-05
284    3.09521306e-16
285    9.02579048e-05
286    -3.66643082e-05
287    -6.06310331e-05
288    -0.000516372532
289    -0.0001413294
290    -5.44738868e-05
291    5.5475566e-05
292    5.75065181e-16
293    -1.75530086e-05
294    -6.04193744e-05
295    0.000180616962
296    -0.000290174018
297    -2.91068747e-05
298    -1.7550062e-05
299    5.72850753e-16
300    -1.25387605e-05
301    -0.000105965089
302    0.000153869047
303    0.000215404888
304    2.78010023e-05
305    2.7706761e-05
306    1.02691496e-16
307    -1.32965824e-06
308    -1.25851332e-05
309    -4.79036637e-05
310    -0.000397012722
311    -2.21436337e-06
312    -1.18710569e-06
313    -2.36529415e-16
314    -8.20144207e-07
315    2.43010357e-05
316    0.000201036432
317    0.000570673283
318    -7.07023207e-06
319    6.13760644e-07
320    -1.68820853e-16
[5D]