[Molden Format]
[Atoms] (Angs)
  N      1    7      1.94018933      0.52508494      0.00000000
  N      2    7     -0.02213269      1.91541175      0.00000000
  N      3    7     -1.17840874     -1.47034963     -0.00000000
  N      4    7     -2.06912523      0.58482266      0.00000000
  N      5    7      1.87296022     -1.79117643     -0.00000000
  C      6    6      1.29026180      1.69525713      0.00000000
  C      7    6     -0.70757697      0.77138093      0.00000000
  C      8    6     -0.17789318     -0.51725539     -0.00000000
  C      9    6      1.22552274     -0.60755281     -0.00000000
  C     10    6     -2.28299045     -0.77446763     -0.00000000
  H     11    1     -2.76356369      1.31172362      0.00000000
  H     12    1     -3.27766143     -1.18864608     -0.00000000
  H     13    1      1.92065024      2.57638112      0.00000000
  H     14    1      1.35622854     -2.65035184     -0.00000000
  H     15    1      2.87602238     -1.79983315     -0.00000000
[GTO]
1    0
S    6    1.000000
   6.29348000E+03    1.96979000E-03 
   9.49044000E+02    1.49613000E-02 
   2.18776000E+02    7.35006000E-02 
   6.36916000E+01    2.48937000E-01 
   1.88282000E+01    6.02460000E-01 
   2.72023000E+00    2.56202000E-01 
SP   3    1.000000
   3.06331000E+01    1.11906000E-01   3.83119000E-02 
   7.02614000E+00    9.21666000E-01   2.37403000E-01 
   2.11205000E+00   -2.56919000E-03   8.17592000E-01 
SP   1    1.000000
   6.84009000E-01    1.00000000E+00   1.00000000E+00 
SP   1    1.000000
   2.00878000E-01    1.00000000E+00   1.00000000E+00 
SP   1    1.000000
   6.39000000E-02    1.00000000E+00   1.00000000E+00 
SP   1    1.000000
   1.92469880E-02    1.00000000E+00   1.00000000E+00 
D    1    1.000000
   9.13000000E-01    1.00000000E+00 

2    0
S    6    1.000000
   6.29348000E+03    1.96979000E-03 
   9.49044000E+02    1.49613000E-02 
   2.18776000E+02    7.35006000E-02 
   6.36916000E+01    2.48937000E-01 
   1.88282000E+01    6.02460000E-01 
   2.72023000E+00    2.56202000E-01 
SP   3    1.000000
   3.06331000E+01    1.11906000E-01   3.83119000E-02 
   7.02614000E+00    9.21666000E-01   2.37403000E-01 
   2.11205000E+00   -2.56919000E-03   8.17592000E-01 
SP   1    1.000000
   6.84009000E-01    1.00000000E+00   1.00000000E+00 
SP   1    1.000000
   2.00878000E-01    1.00000000E+00   1.00000000E+00 
SP   1    1.000000
   6.39000000E-02    1.00000000E+00   1.00000000E+00 
SP   1    1.000000
   1.92469880E-02    1.00000000E+00   1.00000000E+00 
D    1    1.000000
   9.13000000E-01    1.00000000E+00 

3    0
S    6    1.000000
   6.29348000E+03    1.96979000E-03 
   9.49044000E+02    1.49613000E-02 
   2.18776000E+02    7.35006000E-02 
   6.36916000E+01    2.48937000E-01 
   1.88282000E+01    6.02460000E-01 
   2.72023000E+00    2.56202000E-01 
SP   3    1.000000
   3.06331000E+01    1.11906000E-01   3.83119000E-02 
   7.02614000E+00    9.21666000E-01   2.37403000E-01 
   2.11205000E+00   -2.56919000E-03   8.17592000E-01 
SP   1    1.000000
   6.84009000E-01    1.00000000E+00   1.00000000E+00 
SP   1    1.000000
   2.00878000E-01    1.00000000E+00   1.00000000E+00 
SP   1    1.000000
   6.39000000E-02    1.00000000E+00   1.00000000E+00 
SP   1    1.000000
   1.92469880E-02    1.00000000E+00   1.00000000E+00 
D    1    1.000000
   9.13000000E-01    1.00000000E+00 

4    0
S    6    1.000000
   6.29348000E+03    1.96979000E-03 
   9.49044000E+02    1.49613000E-02 
   2.18776000E+02    7.35006000E-02 
   6.36916000E+01    2.48937000E-01 
   1.88282000E+01    6.02460000E-01 
   2.72023000E+00    2.56202000E-01 
SP   3    1.000000
   3.06331000E+01    1.11906000E-01   3.83119000E-02 
   7.02614000E+00    9.21666000E-01   2.37403000E-01 
   2.11205000E+00   -2.56919000E-03   8.17592000E-01 
SP   1    1.000000
   6.84009000E-01    1.00000000E+00   1.00000000E+00 
SP   1    1.000000
   2.00878000E-01    1.00000000E+00   1.00000000E+00 
SP   1    1.000000
   6.39000000E-02    1.00000000E+00   1.00000000E+00 
SP   1    1.000000
   1.92469880E-02    1.00000000E+00   1.00000000E+00 
D    1    1.000000
   9.13000000E-01    1.00000000E+00 

5    0
S    6    1.000000
   6.29348000E+03    1.96979000E-03 
   9.49044000E+02    1.49613000E-02 
   2.18776000E+02    7.35006000E-02 
   6.36916000E+01    2.48937000E-01 
   1.88282000E+01    6.02460000E-01 
   2.72023000E+00    2.56202000E-01 
SP   3    1.000000
   3.06331000E+01    1.11906000E-01   3.83119000E-02 
   7.02614000E+00    9.21666000E-01   2.37403000E-01 
   2.11205000E+00   -2.56919000E-03   8.17592000E-01 
SP   1    1.000000
   6.84009000E-01    1.00000000E+00   1.00000000E+00 
SP   1    1.000000
   2.00878000E-01    1.00000000E+00   1.00000000E+00 
SP   1    1.000000
   6.39000000E-02    1.00000000E+00   1.00000000E+00 
SP   1    1.000000
   1.92469880E-02    1.00000000E+00   1.00000000E+00 
D    1    1.000000
   9.13000000E-01    1.00000000E+00 

6    0
S    1    1.000000
   4.56324000E+03    1.96665000E-03 
S    1    1.000000
   6.82024000E+02    1.52306000E-02 
S    1    1.000000
   1.54973000E+02    7.61269000E-02 
S    1    1.000000
   4.44553000E+01    2.60801000E-01 
S    1    1.000000
   1.30290000E+01    6.16462000E-01 
S    1    1.000000
   1.82773000E+00    2.21006000E-01 
SP   3    1.000000
   2.09642000E+01    1.14660000E-01   4.02487000E-02 
   4.80331000E+00    9.19999000E-01   2.37594000E-01 
   1.45933000E+00   -3.03068000E-03   8.15854000E-01 
SP   1    1.000000
   4.83456000E-01    1.00000000E+00   1.00000000E+00 
SP   1    1.000000
   1.45585000E-01    1.00000000E+00   1.00000000E+00 
SP   1    1.000000
   4.38000000E-02    1.00000000E+00   1.00000000E+00 
SP   1    1.000000
   1.31927711E-02    1.00000000E+00   1.00000000E+00 
D    1    1.000000
   6.26000000E-01    1.00000000E+00 

7    0
S    1    1.000000
   4.56324000E+03    1.96665000E-03 
S    1    1.000000
   6.82024000E+02    1.52306000E-02 
S    1    1.000000
   1.54973000E+02    7.61269000E-02 
S    1    1.000000
   4.44553000E+01    2.60801000E-01 
S    1    1.000000
   1.30290000E+01    6.16462000E-01 
S    1    1.000000
   1.82773000E+00    2.21006000E-01 
SP   3    1.000000
   2.09642000E+01    1.14660000E-01   4.02487000E-02 
   4.80331000E+00    9.19999000E-01   2.37594000E-01 
   1.45933000E+00   -3.03068000E-03   8.15854000E-01 
SP   1    1.000000
   4.83456000E-01    1.00000000E+00   1.00000000E+00 
SP   1    1.000000
   1.45585000E-01    1.00000000E+00   1.00000000E+00 
SP   1    1.000000
   4.38000000E-02    1.00000000E+00   1.00000000E+00 
SP   1    1.000000
   1.31927711E-02    1.00000000E+00   1.00000000E+00 
D    1    1.000000
   6.26000000E-01    1.00000000E+00 

8    0
S    1    1.000000
   4.56324000E+03    1.96665000E-03 
S    1    1.000000
   6.82024000E+02    1.52306000E-02 
S    1    1.000000
   1.54973000E+02    7.61269000E-02 
S    1    1.000000
   4.44553000E+01    2.60801000E-01 
S    1    1.000000
   1.30290000E+01    6.16462000E-01 
S    1    1.000000
   1.82773000E+00    2.21006000E-01 
SP   3    1.000000
   2.09642000E+01    1.14660000E-01   4.02487000E-02 
   4.80331000E+00    9.19999000E-01   2.37594000E-01 
   1.45933000E+00   -3.03068000E-03   8.15854000E-01 
SP   1    1.000000
   4.83456000E-01    1.00000000E+00   1.00000000E+00 
SP   1    1.000000
   1.45585000E-01    1.00000000E+00   1.00000000E+00 
SP   1    1.000000
   4.38000000E-02    1.00000000E+00   1.00000000E+00 
SP   1    1.000000
   1.31927711E-02    1.00000000E+00   1.00000000E+00 
D    1    1.000000
   6.26000000E-01    1.00000000E+00 

9    0
S    1    1.000000
   4.56324000E+03    1.96665000E-03 
S    1    1.000000
   6.82024000E+02    1.52306000E-02 
S    1    1.000000
   1.54973000E+02    7.61269000E-02 
S    1    1.000000
   4.44553000E+01    2.60801000E-01 
S    1    1.000000
   1.30290000E+01    6.16462000E-01 
S    1    1.000000
   1.82773000E+00    2.21006000E-01 
SP   3    1.000000
   2.09642000E+01    1.14660000E-01   4.02487000E-02 
   4.80331000E+00    9.19999000E-01   2.37594000E-01 
   1.45933000E+00   -3.03068000E-03   8.15854000E-01 
SP   1    1.000000
   4.83456000E-01    1.00000000E+00   1.00000000E+00 
SP   1    1.000000
   1.45585000E-01    1.00000000E+00   1.00000000E+00 
SP   1    1.000000
   4.38000000E-02    1.00000000E+00   1.00000000E+00 
SP   1    1.000000
   1.31927711E-02    1.00000000E+00   1.00000000E+00 
D    1    1.000000
   6.26000000E-01    1.00000000E+00 

10    0
S    1    1.000000
   4.56324000E+03    1.96665000E-03 
S    1    1.000000
   6.82024000E+02    1.52306000E-02 
S    1    1.000000
   1.54973000E+02    7.61269000E-02 
S    1    1.000000
   4.44553000E+01    2.60801000E-01 
S    1    1.000000
   1.30290000E+01    6.16462000E-01 
S    1    1.000000
   1.82773000E+00    2.21006000E-01 
SP   3    1.000000
   2.09642000E+01    1.14660000E-01   4.02487000E-02 
   4.80331000E+00    9.19999000E-01   2.37594000E-01 
   1.45933000E+00   -3.03068000E-03   8.15854000E-01 
SP   1    1.000000
   4.83456000E-01    1.00000000E+00   1.00000000E+00 
SP   1    1.000000
   1.45585000E-01    1.00000000E+00   1.00000000E+00 
SP   1    1.000000
   4.38000000E-02    1.00000000E+00   1.00000000E+00 
SP   1    1.000000
   1.31927711E-02    1.00000000E+00   1.00000000E+00 
D    1    1.000000
   6.26000000E-01    1.00000000E+00 

11    0
S    3    1.000000
   3.38650000E+01    2.54938000E-02 
   5.09479000E+00    1.90373000E-01 
   1.15879000E+00    8.52161000E-01 
S    1    1.000000
   3.25840000E-01    1.00000000E+00 
S    1    1.000000
   1.02741000E-01    1.00000000E+00 
S    1    1.000000
   3.60000000E-02    1.00000000E+00 
P    1    1.000000
   7.50000000E-01    1.00000000E+00 

12    0
S    3    1.000000
   3.38650000E+01    2.54938000E-02 
   5.09479000E+00    1.90373000E-01 
   1.15879000E+00    8.52161000E-01 
S    1    1.000000
   3.25840000E-01    1.00000000E+00 
S    1    1.000000
   1.02741000E-01    1.00000000E+00 
S    1    1.000000
   3.60000000E-02    1.00000000E+00 
P    1    1.000000
   7.50000000E-01    1.00000000E+00 

13    0
S    3    1.000000
   3.38650000E+01    2.54938000E-02 
   5.09479000E+00    1.90373000E-01 
   1.15879000E+00    8.52161000E-01 
S    1    1.000000
   3.25840000E-01    1.00000000E+00 
S    1    1.000000
   1.02741000E-01    1.00000000E+00 
S    1    1.000000
   3.60000000E-02    1.00000000E+00 
P    1    1.000000
   7.50000000E-01    1.00000000E+00 

14    0
S    3    1.000000
   3.38650000E+01    2.54938000E-02 
   5.09479000E+00    1.90373000E-01 
   1.15879000E+00    8.52161000E-01 
S    1    1.000000
   3.25840000E-01    1.00000000E+00 
S    1    1.000000
   1.02741000E-01    1.00000000E+00 
S    1    1.000000
   3.60000000E-02    1.00000000E+00 
P    1    1.000000
   7.50000000E-01    1.00000000E+00 

15    0
S    3    1.000000
   3.38650000E+01    2.54938000E-02 
   5.09479000E+00    1.90373000E-01 
   1.15879000E+00    8.52161000E-01 
S    1    1.000000
   3.25840000E-01    1.00000000E+00 
S    1    1.000000
   1.02741000E-01    1.00000000E+00 
S    1    1.000000
   3.60000000E-02    1.00000000E+00 
P    1    1.000000
   7.50000000E-01    1.00000000E+00 

[MO]
Sym=X
Ene=0.945352
Spin=Alpha
Occup=1
1    -4.38974049e-06
2    1.58374687e-06
3    -2.00193824e-05
4    -1.74170379e-05
5    -1.92875743e-15
6    -3.20343041e-05
7    5.47893544e-05
8    7.57915701e-05
9    4.22652974e-15
10    -4.74013249e-05
11    5.77969055e-05
12    -0.000146141876
13    -2.00088993e-14
14    -0.000599776446
15    0.000405180522
16    -0.000114469305
17    1.13769064e-13
18    6.39707533e-05
19    0.000189726103
20    -0.000105980053
21    7.54757563e-14
22    -4.11628465e-05
23    -4.96901558e-16
24    4.99480414e-06
25    1.22784067e-16
26    -2.45380286e-05
27    -6.22398574e-06
28    -9.63518219e-07
29    -3.85153975e-06
30    -2.89525783e-05
31    -2.8207547e-15
32    -1.62656536e-05
33    3.06423402e-05
34    7.62616906e-05
35    4.18570483e-15
36    -0.000120274904
37    -0.000147700681
38    5.38818858e-05
39    -1.92373555e-14
40    -0.000125043364
41    -0.000179015407
42    2.54999072e-05
43    9.99535319e-14
44    -0.000303946364
45    -0.0001753606
46    1.98495682e-05
47    1.19826313e-13
48    -1.94654914e-06
49    2.89625426e-16
50    1.3873888e-05
51    1.95888039e-16
52    4.9936813e-05
53    0.000143820306
54    0.000212348271
55    -6.93919684e-05
56    -8.68858581e-05
57    2.50638138e-15
58    -0.000346927703
59    -0.000515709827
60    -0.000365961845
61    -4.66944788e-15
62    -0.000142190103
63    5.85021702e-05
64    4.64231231e-05
65    2.31316734e-14
66    0.000584642417
67    0.000248919018
68    3.72730145e-05
69    -9.86028118e-14
70    0.000703019247
71    -8.56177242e-05
72    0.000117507292
73    -2.72513664e-14
74    -0.000292098024
75    6.55225763e-16
76    0.000105223474
77    -4.99158823e-16
78    -9.75227034e-06
79    -9.25374056e-06
80    -8.83333986e-08
81    2.50198042e-05
82    -2.95323674e-06
83    8.81931788e-16
84    -4.82285909e-05
85    -9.35084678e-05
86    1.43308028e-05
87    5.69345297e-16
88    -0.000101957575
89    -3.36120789e-05
90    0.000152954431
91    -4.2902424e-15
92    -0.000854444434
93    -0.000644782166
94    0.000673434221
95    4.33078534e-14
96    -0.000332401421
97    -0.000320303347
98    0.000436705582
99    -1.33686606e-14
100    -1.32080999e-05
101    -4.19508308e-16
102    5.82173175e-06
103    -3.52251275e-16
104    -2.55576102e-05
105    -7.22350468e-06
106    -1.26773895e-06
107    -1.83260597e-05
108    1.89375958e-05
109    -4.66995895e-16
110    -3.84523277e-05
111    5.74876963e-05
112    -7.41497403e-05
113    2.39726949e-15
114    0.00014522934
115    3.48660757e-05
116    0.000110894989
117    -9.10218866e-15
118    -0.000120820141
119    5.51591885e-05
120    0.000122845693
121    5.14001187e-14
122    1.63009509e-05
123    -0.000140411283
124    3.15889051e-05
125    -1.34062125e-14
126    4.50453783e-05
127    -1.67554941e-17
128    1.13098725e-06
129    -8.16677703e-16
130    3.65306659e-06
131    -3.99646136e-07
132    -3.11625972e-06
133    -1.53858314e-05
134    -5.3446972e-05
135    -0.000120253839
136    -2.07780945e-05
137    -0.000183115546
138    -1.51625106e-06
139    -5.69085742e-06
140    -1.6785444e-15
141    -4.37785271e-05
142    -3.76369368e-06
143    2.6187757e-05
144    2.523265e-15
145    0.000520481628
146    -6.19493086e-05
147    -0.000104839984
148    -1.47861564e-14
149    0.00120270778
150    -0.000467022598
151    -0.000398704686
152    -8.520242e-14
153    0.000933382506
154    -0.000150636556
155    -0.000102112672
156    -9.52049088e-14
157    2.84206444e-05
158    -4.88771753e-17
159    3.7265143e-07
160    3.79522211e-16
161    8.38496803e-07
162    1.41532676e-05
163    0.000109644575
164    0.000546531856
165    0.00187884055
166    0.00442358906
167    0.00165920983
168    0.00601411087
169    -6.60984376e-05
170    0.000132692916
171    -2.02638586e-16
172    -0.000462127006
173    -0.00021749669
174    0.000478001909
175    -4.79784188e-16
176    0.000978473356
177    0.000142773653
178    -0.000550206548
179    5.99047301e-15
180    -7.2674563e-05
181    -0.000229628102
182    -0.000587470565
183    -2.6867413e-13
184    0.000229751065
185    0.000599263184
186    -0.00030739445
187    -2.51306515e-14
188    0.000256148744
189    -1.00083331e-15
190    1.39322015e-05
191    -1.74827282e-16
192    0.000204494393
193    -0.00110900558
194    -0.00858565642
195    -0.0428276545
196    -0.147049381
197    -0.347356896
198    -0.127005256
199    -0.464973393
200    0.00013750725
201    0.000356245724
202    -4.11566435e-16
203    -0.00202932162
204    -5.04578742e-05
205    -0.000313034468
206    3.93787026e-15
207    -0.00182742204
208    4.45887727e-05
209    -0.000189396972
210    -1.83091447e-14
211    -0.00935098566
212    -0.00455296563
213    0.000754444115
214    3.95601164e-13
215    -0.00112066842
216    -0.000310961278
217    0.000298281371
218    -5.38685587e-14
219    9.86496052e-05
220    -8.51835755e-16
221    0.000105774334
222    -5.67017254e-16
223    -5.86765073e-05
224    9.16191693e-06
225    7.09877023e-05
226    0.000353800669
227    0.00121667912
228    0.00286363468
229    0.00109826093
230    0.0039075149
231    0.000120764119
232    -9.58654319e-06
233    -8.28669405e-16
234    -0.000437902088
235    0.000557702297
236    4.31240879e-06
237    1.97584501e-15
238    0.000357936315
239    -0.000537489868
240    0.000119839419
241    4.53015687e-16
242    0.0104258307
243    -0.00298882896
244    -8.48889442e-05
245    -2.88287546e-13
246    -0.000475474851
247    1.68647132e-05
248    -0.000454490204
249    6.68426177e-14
250    -7.85287098e-06
251    -1.66745303e-16
252    3.86938736e-05
253    -1.16671574e-15
254    -0.000320391588
255    -4.28960892e-07
256    -3.33380759e-06
257    -1.65428361e-05
258    -5.70683254e-05
259    -0.000129435266
260    -6.50517672e-06
261    -0.000197792121
262    5.41497951e-06
263    -1.48477103e-05
264    1.63947851e-15
265    -0.000127780849
266    -9.34597318e-05
267    6.43212328e-05
268    -1.0309622e-15
269    0.000577848183
270    0.00023173061
271    0.000102543088
272    6.81312085e-15
273    -0.00130915561
274    -0.000422621962
275    -0.000136479386
276    7.17843926e-15
277    0.000344603637
278    5.31214329e-05
279    2.65062658e-05
280    4.21535037e-14
281    9.03166445e-05
282    2.04064812e-16
283    -1.19537876e-05
284    -4.21048222e-16
285    3.08384086e-07
286    -1.38268874e-05
287    -3.73251598e-05
288    -0.000302432083
289    -0.00075097339
290    -1.77704767e-05
291    1.63271929e-05
292    2.08124655e-16
293    -1.85645969e-05
294    -5.80389243e-05
295    0.000154136934
296    -0.000207527447
297    -3.62310266e-05
298    -7.37486507e-06
299    3.86058804e-16
300    -2.98131141e-06
301    -5.03260658e-05
302    9.6735444e-05
303    0.00038360977
304    7.97720028e-06
305    1.21493089e-05
306    -5.28746615e-16
307    -5.14812107e-06
308    -6.24172116e-06
309    0.00012060434
310    -1.18091419e-05
311    -4.60434593e-06
312    -1.26584248e-05
313    -9.24392595e-17
314    -7.66745898e-06
315    -5.66264291e-05
316    5.6381427e-05
317    0.000225879233
318    1.91683717e-05
319    -3.53770573e-06
320    9.90848237e-16
Sym=X
Ene=0.950328
Spin=Alpha
Occup=1
1    0.000181257248
2    0.000257552413
3    7.68914514e-05
4    -0.000103946512
5    1.16481075e-15
6    -0.000396941653
7    0.000289109448
8    -0.000612427481
9    -2.43805808e-15
10    -0.000225221326
11    -8.15686629e-06
12    0.000179999596
13    1.04405616e-14
14    0.000117461652
15    6.61726404e-05
16    -3.50208481e-05
17    -6.8742323e-14
18    0.000330408303
19    -4.36486198e-05
20    -0.000202090913
21    -3.93125351e-14
22    0.000292097442
23    -2.27819849e-16
24    9.36199184e-05
25    2.42589365e-16
26    9.32232343e-05
27    0.00018988527
28    0.00026469637
29    -0.000135125862
30    3.67813875e-05
31    1.21639413e-15
32    -0.000379708755
33    -0.000651788626
34    5.50527627e-05
35    -1.84654685e-15
36    -0.000413150308
37    0.000148865936
38    0.000143910372
39    7.67449209e-15
40    -0.00040457967
41    -0.000223528518
42    3.346097e-05
43    -5.13171365e-14
44    -0.00059642053
45    -0.000253975843
46    -2.38680575e-05
47    -8.81782392e-14
48    0.000157311252
49    1.20253575e-16
50    9.15310485e-05
51    -4.85172623e-18
52    -0.000260099661
53    2.05590233e-07
54    1.95603674e-07
55    -3.03556128e-07
56    2.20144914e-06
57    -1.40506963e-15
58    1.39054574e-05
59    3.63163794e-06
60    -1.17307345e-05
61    3.96975559e-15
62    -0.000317142127
63    -8.24422156e-05
64    -7.21260667e-05
65    -1.28934213e-14
66    -0.000274556992
67    -7.41882065e-05
68    -6.81330468e-05
69    6.32845761e-14
70    -0.000323329966
71    -2.05662127e-05
72    -1.70683163e-05
73    -4.94307039e-14
74    -2.24924501e-07
75    -6.66614806e-17
76    2.77203742e-06
77    2.40731962e-16
78    -3.72012239e-06
79    1.19374457e-06
80    6.22616595e-06
81    5.0553779e-06
82    3.68138573e-06
83    -7.21792246e-16
84    -4.75685178e-05
85    -4.5213e-05
86    -1.78192804e-05
87    1.71134518e-16
88    0.000327049536
89    0.000179677487
90    7.90327721e-06
91    4.90022436e-15
92    0.000432804402
93    -4.07026355e-05
94    7.84168981e-05
95    -3.10037325e-14
96    0.000366331537
97    8.82095374e-05
98    5.30612963e-05
99    4.89535306e-14
100    -1.4685279e-05
101    4.01627661e-16
102    -1.20460549e-06
103    -2.51292201e-16
104    -1.18828218e-05
105    1.08312864e-06
106    6.76860712e-06
107    -1.42966362e-06
108    6.42914492e-06
109    3.86083274e-16
110    -5.36504779e-05
111    1.55987282e-05
112    -5.18874124e-05
113    -2.17040252e-15
114    0.00036329294
115    -0.000159929054
116    0.000109509835
117    6.48012868e-15
118    0.000347771273
119    -0.000153160764
120    4.91992127e-06
121    -3.63429973e-14
122    0.000186029815
123    -8.86436902e-05
124    -4.77093382e-05
125    3.66947704e-14
126    9.53994308e-06
127    1.77321783e-16
128    -4.32763648e-06
129    -2.27620204e-17
130    1.28292088e-05
131    -0.00110943883
132    -0.00858878011
133    -0.0428451499
134    -0.14709798
135    -0.347507651
136    -0.126609546
137    -0.465375337
138    0.000178871443
139    0.000345537853
140    7.07381351e-16
141    -0.001591667
142    -2.10935254e-05
143    -0.000117344737
144    -1.77960052e-15
145    -0.000683857542
146    0.00041245342
147    0.000684141224
148    8.91801506e-15
149    0.000456610353
150    -0.000377325055
151    -0.000295971842
152    4.6432771e-14
153    0.00125341901
154    -0.000182634502
155    -0.000152708249
156    1.07747672e-13
157    1.14289492e-05
158    -3.73347109e-16
159    0.000191988371
160    -2.52899203e-16
161    -2.43732064e-05
162    -2.66811914e-06
163    -2.06738253e-05
164    -0.000103004406
165    -0.000354075838
166    -0.000829847493
167    -0.000259655957
168    -0.0011398498
169    6.20296733e-06
170    1.92309588e-05
171    3.01292374e-16
172    -0.000114471215
173    -5.18251028e-05
174    -0.000103763415
175    2.09320283e-16
176    0.000555459337
177    0.000862966238
178    0.000404262564
179    -2.00382084e-15
180    -0.00104821356
181    0.000282325026
182    4.58946359e-06
183    1.53070717e-13
184    -0.000408914767
185    0.000294855618
186    -3.5146982e-05
187    -1.08175578e-13
188    -5.49934088e-05
189    1.02658069e-15
190    -3.05447778e-07
191    -1.63282874e-16
192    5.22107143e-05
193    3.88313472e-07
194    2.9729346e-06
195    1.50694147e-05
196    5.08072542e-05
197    0.000128801023
198    8.1634374e-05
199    0.000141181318
200    1.44207168e-05
201    9.33100571e-06
202    4.52129787e-16
203    -7.1397531e-05
204    -8.1629214e-05
205    -4.26790581e-05
206    -1.24411884e-15
207    -5.45427952e-06
208    -0.000220691373
209    -0.000465518818
210    1.04262046e-14
211    0.000244933167
212    -7.32522202e-05
213    0.00012973995
214    -2.34896644e-13
215    -0.000747977136
216    -0.0003163837
217    -0.000296150191
218    2.98318909e-13
219    -1.57299804e-05
220    9.38440163e-16
221    5.88968193e-06
222    4.40417988e-17
223    1.11238564e-06
224    -6.1839909e-07
225    -4.80142315e-06
226    -2.38571213e-05
227    -8.22233636e-05
228    -0.000188858479
229    -3.23503425e-05
230    -0.000277251493
231    1.8253962e-05
232    1.92614823e-05
233    8.9509875e-16
234    -8.61858546e-05
235    -8.8272559e-05
236    -0.000101762748
237    -1.96708521e-15
238    0.000224830091
239    -1.44669566e-05
240    0.000761151754
241    6.90250095e-16
242    -0.000707601384
243    -6.0728518e-05
244    -0.000127019387
245    1.76212093e-13
246    -0.000466693813
247    9.01963564e-05
248    1.71962265e-05
249    -2.05143738e-13
250    -7.7079716e-05
251    1.64376438e-16
252    -2.83001261e-06
253    5.24474454e-16
254    4.07694566e-05
255    8.01179845e-08
256    6.06723221e-07
257    3.12490943e-06
258    1.0344694e-05
259    2.78965553e-05
260    2.30220227e-05
261    2.56332883e-05
262    -3.28453568e-07
263    4.99726772e-06
264    -4.79552204e-16
265    -4.14917219e-05
266    3.06042948e-06
267    -2.62098006e-05
268    1.24935706e-15
269    0.000120279555
270    0.000171037674
271    0.000103350147
272    -4.20438951e-15
273    0.000153367337
274    0.000295793555
275    0.000101272846
276    5.72893017e-15
277    0.000366339299
278    3.24318517e-05
279    0.000133101709
280    -4.97943047e-14
281    -9.49768537e-06
282    -3.30653571e-16
283    -6.48421202e-06
284    3.67026187e-16
285    1.13662797e-05
286    -3.13055394e-06
287    3.276721e-07
288    -4.39236354e-05
289    -0.000102157025
290    -1.1158385e-05
291    2.42439863e-06
292    -9.27051385e-16
293    -5.26445055e-06
294    3.5492165e-05
295    0.000119286123
296    0.000247589362
297    4.07848447e-06
298    -1.65008929e-06
299    -3.51548207e-16
300    -0.00036610778
301    -0.000524990626
302    -0.000190573488
303    0.000679851477
304    0.000184515049
305    0.000255229595
306    1.68803708e-16
307    -1.32978662e-06
308    -4.8069603e-05
309    -2.97327631e-05
310    -0.000177771894
311    -2.91020354e-06
312    -1.60868489e-05
313    8.26338305e-17
314    -3.2174836e-06
315    -1.8094687e-06
316    0.000113951328
317    8.32439966e-06
318    6.57934714e-06
319    -4.27785556e-06
320    -2.18627421e-16
Sym=X
Ene=0.950824
Spin=Alpha
Occup=1
1    -3.83310942e-06
2    1.41154899e-06
3    -1.2836696e-05
4    -2.21161607e-06
5    -3.89771101e-16
6    -4.09466205e-05
7    3.73387109e-05
8    1.95114226e-05
9    2.10847619e-15
10    0.000176659431
11    -7.72501786e-05
12    -4.28526875e-05
13    -6.50001071e-15
14    -3.0553682e-05
15    0.000249652409
16    -7.59212642e-05
17    5.59033481e-14
18    3.69100098e-05
19    0.000110546764
20    0.000204383838
21    5.15839984e-14
22    -1.45388724e-06
23    1.5174507e-16
24    5.71717681e-06
25    -4.50539975e-16
26    -7.12552962e-06
27    0.00017985075
28    0.000247935462
29    6.29060776e-05
30    0.000136245774
31    1.0697894e-16
32    -0.000374043743
33    0.000348947961
34    0.000463256402
35    2.70613884e-15
36    -3.47781726e-05
37    -7.44701526e-05
38    -9.29220693e-05
39    -4.5044919e-15
40    -0.000695637056
41    -0.000389105255
42    0.000285959263
43    4.8795856e-14
44    -0.00129195343
45    -0.000135123772
46    1.34038412e-05
47    4.11847379e-14
48    -0.000231611114
49    -2.10043213e-16
50    7.89483881e-05
51    -1.0280455e-16
52    0.000164573236
53    -3.02704604e-06
54    9.26972149e-06
55    9.03175896e-06
56    2.29255402e-05
57    1.46736431e-15
58    -5.29075604e-05
59    -4.22502949e-05
60    -8.67725331e-05
61    -1.28510273e-15
62    -0.000293112832
63    0.000150978389
64    -0.000131740974
65    1.08041542e-14
66    -0.000770635565
67    -7.45262414e-05
68    -0.000143704247
69    -5.00690474e-14
70    -0.00111926425
71    -0.0007979735
72    -3.38018225e-05
73    -1.32562936e-14
74    -1.88180134e-05
75    5.88648676e-16
76    1.82250308e-05
77    -1.05042709e-16
78    1.99692546e-05
79    0.00014963564
80    0.000232269286
81    -8.98884096e-05
82    -4.52345023e-06
83    1.09677091e-15
84    -0.000433355912
85    -0.000754894048
86    -0.000180440579
87    1.88329667e-15
88    0.000105219322
89    5.69758692e-05
90    0.000112454198
91    1.2239945e-15
92    0.001919113
93    1.26885813e-05
94    0.00110635144
95    1.91382344e-14
96    0.00165927497
97    0.000707808156
98    0.000599035886
99    -2.61116599e-14
100    -0.000172569923
101    -3.18474265e-16
102    0.000101435726
103    2.76989277e-16
104    -0.000313508358
105    4.13886275e-07
106    2.10036897e-06
107    -5.29712528e-06
108    1.10391893e-06
109    -6.24346027e-16
110    -3.33393523e-06
111    2.63619888e-05
112    -1.5915383e-05
113    1.27588143e-15
114    -0.000172786095
115    -2.27539322e-05
116    -4.47541825e-05
117    -5.90191887e-15
118    -0.00029122513
119    -0.000252264017
120    -4.63084391e-05
121    3.15298956e-14
122    0.00104106593
123    -0.000502627302
124    -3.89577237e-05
125    -1.0701572e-14
126    1.27645889e-05
127    1.25186477e-16
128    2.36252765e-06
129    -4.57529231e-17
130    -7.64233187e-06
131    2.53093676e-06
132    1.95478498e-05
133    9.78414312e-05
134    0.000334689538
135    0.000803829841
136    0.000355337753
137    0.00102763484
138    -1.86326985e-05
139    -2.784781e-06
140    -1.04672252e-16
141    -0.000143103419
142    0.000137341015
143    3.35484803e-05
144    3.36983706e-15
145    0.000339403815
146    -0.0001131842
147    3.07149957e-05
148    -7.73291722e-15
149    -0.00039918691
150    -0.00014059371
151    -5.8888479e-05
152    -3.64174285e-14
153    -6.78374903e-05
154    -0.000493953345
155    0.000231460206
156    -6.88615116e-14
157    4.06455017e-05
158    -5.27380103e-17
159    -4.97626946e-06
160    -4.54487246e-16
161    -6.9182611e-05
162    -0.00110922261
163    -0.00858721139
164    -0.0428364473
165    -0.147072474
166    -0.347428445
167    -0.126695204
168    -0.465224163
169    0.00093432142
170    -0.000444521207
171    5.11069621e-16
172    -0.00187062873
173    -0.000811518229
174    0.000396878719
175    3.95424556e-15
176    -0.0016909433
177    0.000636577974
178    0.000157571532
179    6.57228867e-17
180    0.00195141119
181    0.00330462212
182    -0.00110759475
183    -1.20415793e-13
184    0.000705333372
185    0.0008895203
186    -0.000412980767
187    3.76696031e-14
188    1.30148144e-05
189    -5.09819383e-16
190    0.000234613422
191    3.7958488e-16
192    0.000258209561
193    -1.36413781e-05
194    -0.00010547766
195    -0.000526982405
196    -0.00180546289
197    -0.00429489159
198    -0.0015990712
199    -0.00560748441
200    5.02637066e-05
201    -0.000126156926
202    6.17777235e-16
203    -0.000322380648
204    0.0001779246
205    -0.000339435023
206    2.5898204e-15
207    0.000770227968
208    -0.000431189272
209    0.000457104189
210    -2.88323178e-15
211    -0.014239643
212    -0.00717739073
213    -0.00104956739
214    1.95601501e-13
215    -0.000721434784
216    -0.000454867379
217    -0.00131304052