[Molden Format]
[Atoms] (Angs)
  C      1    6     -0.00714236     -1.70213747     -0.00000000
  H      2    1     -2.06882847     -1.44022412      0.00000000
  H      3    1     -0.12337987     -2.77567521      0.00000000
  H      4    1      0.04651892      1.98813947     -0.00000000
  C      5    6     -1.21953563      0.40211669      0.00000000
  O      6    8     -2.25921553      1.03043814      0.00000000
  C      7    6      1.28797806      0.34644937     -0.00000000
  O      8    8      2.31273661      1.00537216     -0.00000000
  N      9    7      0.03446295      0.97739857     -0.00000000
  N     10    7     -1.17287765     -0.98229824      0.00000000
  C     11    6      1.20107039     -1.10433419     -0.00000000
  H     12    1      2.11220096     -1.67699125     -0.00000000
[GTO]
1    0
S    1    1.000000
   4.56324000E+03    1.96665000E-03 
S    1    1.000000
   6.82024000E+02    1.52306000E-02 
S    1    1.000000
   1.54973000E+02    7.61269000E-02 
S    1    1.000000
   4.44553000E+01    2.60801000E-01 
S    1    1.000000
   1.30290000E+01    6.16462000E-01 
S    1    1.000000
   1.82773000E+00    2.21006000E-01 
SP   3    1.000000
   2.09642000E+01    1.14660000E-01   4.02487000E-02 
   4.80331000E+00    9.19999000E-01   2.37594000E-01 
   1.45933000E+00   -3.03068000E-03   8.15854000E-01 
SP   1    1.000000
   4.83456000E-01    1.00000000E+00   1.00000000E+00 
SP   1    1.000000
   1.45585000E-01    1.00000000E+00   1.00000000E+00 
SP   1    1.000000
   4.38000000E-02    1.00000000E+00   1.00000000E+00 
SP   1    1.000000
   1.31927711E-02    1.00000000E+00   1.00000000E+00 
D    1    1.000000
   6.26000000E-01    1.00000000E+00 

2    0
S    3    1.000000
   3.38650000E+01    2.54938000E-02 
   5.09479000E+00    1.90373000E-01 
   1.15879000E+00    8.52161000E-01 
S    1    1.000000
   3.25840000E-01    1.00000000E+00 
S    1    1.000000
   1.02741000E-01    1.00000000E+00 
S    1    1.000000
   3.60000000E-02    1.00000000E+00 
P    1    1.000000
   7.50000000E-01    1.00000000E+00 

3    0
S    3    1.000000
   3.38650000E+01    2.54938000E-02 
   5.09479000E+00    1.90373000E-01 
   1.15879000E+00    8.52161000E-01 
S    1    1.000000
   3.25840000E-01    1.00000000E+00 
S    1    1.000000
   1.02741000E-01    1.00000000E+00 
S    1    1.000000
   3.60000000E-02    1.00000000E+00 
P    1    1.000000
   7.50000000E-01    1.00000000E+00 

4    0
S    3    1.000000
   3.38650000E+01    2.54938000E-02 
   5.09479000E+00    1.90373000E-01 
   1.15879000E+00    8.52161000E-01 
S    1    1.000000
   3.25840000E-01    1.00000000E+00 
S    1    1.000000
   1.02741000E-01    1.00000000E+00 
S    1    1.000000
   3.60000000E-02    1.00000000E+00 
P    1    1.000000
   7.50000000E-01    1.00000000E+00 

5    0
S    1    1.000000
   4.56324000E+03    1.96665000E-03 
S    1    1.000000
   6.82024000E+02    1.52306000E-02 
S    1    1.000000
   1.54973000E+02    7.61269000E-02 
S    1    1.000000
   4.44553000E+01    2.60801000E-01 
S    1    1.000000
   1.30290000E+01    6.16462000E-01 
S    1    1.000000
   1.82773000E+00    2.21006000E-01 
SP   3    1.000000
   2.09642000E+01    1.14660000E-01   4.02487000E-02 
   4.80331000E+00    9.19999000E-01   2.37594000E-01 
   1.45933000E+00   -3.03068000E-03   8.15854000E-01 
SP   1    1.000000
   4.83456000E-01    1.00000000E+00   1.00000000E+00 
SP   1    1.000000
   1.45585000E-01    1.00000000E+00   1.00000000E+00 
SP   1    1.000000
   4.38000000E-02    1.00000000E+00   1.00000000E+00 
SP   1    1.000000
   1.31927711E-02    1.00000000E+00   1.00000000E+00 
D    1    1.000000
   6.26000000E-01    1.00000000E+00 

6    0
S    1    1.000000
   8.58850000E+03    1.89515000E-03 
S    1    1.000000
   1.29723000E+03    1.43859000E-02 
S    1    1.000000
   2.99296000E+02    7.07320000E-02 
S    1    1.000000
   8.73771000E+01    2.40001000E-01 
S    1    1.000000
   2.56789000E+01    5.94797000E-01 
S    1    1.000000
   3.74004000E+00    2.80802000E-01 
SP   3    1.000000
   4.21175000E+01    1.13889000E-01   3.65114000E-02 
   9.62837000E+00    9.20811000E-01   2.37153000E-01 
   2.85332000E+00   -3.27447000E-03   8.19702000E-01 
SP   1    1.000000
   9.05661000E-01    1.00000000E+00   1.00000000E+00 
SP   1    1.000000
   2.55611000E-01    1.00000000E+00   1.00000000E+00 
SP   1    1.000000
   8.45000000E-02    1.00000000E+00   1.00000000E+00 
SP   1    1.000000
   2.54518072E-02    1.00000000E+00   1.00000000E+00 
D    1    1.000000
   1.29200000E+00    1.00000000E+00 

7    0
S    1    1.000000
   4.56324000E+03    1.96665000E-03 
S    1    1.000000
   6.82024000E+02    1.52306000E-02 
S    1    1.000000
   1.54973000E+02    7.61269000E-02 
S    1    1.000000
   4.44553000E+01    2.60801000E-01 
S    1    1.000000
   1.30290000E+01    6.16462000E-01 
S    1    1.000000
   1.82773000E+00    2.21006000E-01 
SP   3    1.000000
   2.09642000E+01    1.14660000E-01   4.02487000E-02 
   4.80331000E+00    9.19999000E-01   2.37594000E-01 
   1.45933000E+00   -3.03068000E-03   8.15854000E-01 
SP   1    1.000000
   4.83456000E-01    1.00000000E+00   1.00000000E+00 
SP   1    1.000000
   1.45585000E-01    1.00000000E+00   1.00000000E+00 
SP   1    1.000000
   4.38000000E-02    1.00000000E+00   1.00000000E+00 
SP   1    1.000000
   1.31927711E-02    1.00000000E+00   1.00000000E+00 
D    1    1.000000
   6.26000000E-01    1.00000000E+00 

8    0
S    1    1.000000
   8.58850000E+03    1.89515000E-03 
S    1    1.000000
   1.29723000E+03    1.43859000E-02 
S    1    1.000000
   2.99296000E+02    7.07320000E-02 
S    1    1.000000
   8.73771000E+01    2.40001000E-01 
S    1    1.000000
   2.56789000E+01    5.94797000E-01 
S    1    1.000000
   3.74004000E+00    2.80802000E-01 
SP   3    1.000000
   4.21175000E+01    1.13889000E-01   3.65114000E-02 
   9.62837000E+00    9.20811000E-01   2.37153000E-01 
   2.85332000E+00   -3.27447000E-03   8.19702000E-01 
SP   1    1.000000
   9.05661000E-01    1.00000000E+00   1.00000000E+00 
SP   1    1.000000
   2.55611000E-01    1.00000000E+00   1.00000000E+00 
SP   1    1.000000
   8.45000000E-02    1.00000000E+00   1.00000000E+00 
SP   1    1.000000
   2.54518072E-02    1.00000000E+00   1.00000000E+00 
D    1    1.000000
   1.29200000E+00    1.00000000E+00 

9    0
S    1    1.000000
   6.29348000E+03    1.96979000E-03 
S    1    1.000000
   9.49044000E+02    1.49613000E-02 
S    1    1.000000
   2.18776000E+02    7.35006000E-02 
S    1    1.000000
   6.36916000E+01    2.48937000E-01 
S    1    1.000000
   1.88282000E+01    6.02460000E-01 
S    1    1.000000
   2.72023000E+00    2.56202000E-01 
SP   3    1.000000
   3.06331000E+01    1.11906000E-01   3.83119000E-02 
   7.02614000E+00    9.21666000E-01   2.37403000E-01 
   2.11205000E+00   -2.56919000E-03   8.17592000E-01 
SP   1    1.000000
   6.84009000E-01    1.00000000E+00   1.00000000E+00 
SP   1    1.000000
   2.00878000E-01    1.00000000E+00   1.00000000E+00 
SP   1    1.000000
   6.39000000E-02    1.00000000E+00   1.00000000E+00 
SP   1    1.000000
   1.92469880E-02    1.00000000E+00   1.00000000E+00 
D    1    1.000000
   9.13000000E-01    1.00000000E+00 

10    0
S    1    1.000000
   6.29348000E+03    1.96979000E-03 
S    1    1.000000
   9.49044000E+02    1.49613000E-02 
S    1    1.000000
   2.18776000E+02    7.35006000E-02 
S    1    1.000000
   6.36916000E+01    2.48937000E-01 
S    1    1.000000
   1.88282000E+01    6.02460000E-01 
S    1    1.000000
   2.72023000E+00    2.56202000E-01 
SP   3    1.000000
   3.06331000E+01    1.11906000E-01   3.83119000E-02 
   7.02614000E+00    9.21666000E-01   2.37403000E-01 
   2.11205000E+00   -2.56919000E-03   8.17592000E-01 
SP   1    1.000000
   6.84009000E-01    1.00000000E+00   1.00000000E+00 
SP   1    1.000000
   2.00878000E-01    1.00000000E+00   1.00000000E+00 
SP   1    1.000000
   6.39000000E-02    1.00000000E+00   1.00000000E+00 
SP   1    1.000000
   1.92469880E-02    1.00000000E+00   1.00000000E+00 
D    1    1.000000
   9.13000000E-01    1.00000000E+00 

11    0
S    1    1.000000
   4.56324000E+03    1.96665000E-03 
S    1    1.000000
   6.82024000E+02    1.52306000E-02 
S    1    1.000000
   1.54973000E+02    7.61269000E-02 
S    1    1.000000
   4.44553000E+01    2.60801000E-01 
S    1    1.000000
   1.30290000E+01    6.16462000E-01 
S    1    1.000000
   1.82773000E+00    2.21006000E-01 
SP   3    1.000000
   2.09642000E+01    1.14660000E-01   4.02487000E-02 
   4.80331000E+00    9.19999000E-01   2.37594000E-01 
   1.45933000E+00   -3.03068000E-03   8.15854000E-01 
SP   1    1.000000
   4.83456000E-01    1.00000000E+00   1.00000000E+00 
SP   1    1.000000
   1.45585000E-01    1.00000000E+00   1.00000000E+00 
SP   1    1.000000
   4.38000000E-02    1.00000000E+00   1.00000000E+00 
SP   1    1.000000
   1.31927711E-02    1.00000000E+00   1.00000000E+00 
D    1    1.000000
   6.26000000E-01    1.00000000E+00 

12    0
S    3    1.000000
   3.38650000E+01    2.54938000E-02 
   5.09479000E+00    1.90373000E-01 
   1.15879000E+00    8.52161000E-01 
S    1    1.000000
   3.25840000E-01    1.00000000E+00 
S    1    1.000000
   1.02741000E-01    1.00000000E+00 
S    1    1.000000
   3.60000000E-02    1.00000000E+00 
P    1    1.000000
   7.50000000E-01    1.00000000E+00 

[MO]
Sym=X
Ene=0.919887
Spin=Alpha
Occup=1
1    -1.2447763e-08
2    1.20492944e-07
3    -3.14631716e-07
4    4.80673284e-06
5    1.88386445e-05
6    -1.09111352e-05
7    2.36817146e-07
8    2.34902647e-06
9    -5.8034167e-16
10    -4.9117096e-05
11    -9.44677864e-06
12    -1.49339978e-05
13    -4.31338485e-16
14    0.000355173593
15    3.25953483e-05
16    0.000210322563
17    2.58346113e-15
18    -0.00195765795
19    -0.00044152842
20    0.000258407556
21    -5.45850059e-14
22    -0.00070923306
23    -0.000255545814
24    -8.94597505e-05
25    1.00795917e-13
26    -1.35251749e-05
27    2.48974794e-16
28    -2.67868286e-06
29    -8.60054455e-16
30    8.45947809e-06
31    -5.26101654e-07
32    -1.9253309e-05
33    2.43076477e-07
34    -0.000153395332
35    -3.54858047e-07
36    -1.80559984e-06
37    9.40814659e-16
38    1.54561709e-06
39    9.89733255e-06
40    0.000158915605
41    0.000302953121
42    -2.90686773e-06
43    3.46014534e-06
44    -7.8224929e-16
45    -8.93285272e-06
46    6.58303001e-06
47    -2.94362477e-05
48    -9.90463862e-05
49    1.03074927e-05
50    -4.78297302e-07
51    8.95899268e-16
52    9.04404505e-10
53    -1.80053296e-09
54    5.55248681e-08
55    -6.49761202e-08
56    1.80356266e-06
57    6.86403234e-06
58    -3.5556425e-06
59    5.21419794e-07
60    -5.32945407e-07
61    1.92566512e-15
62    -1.83618635e-05
63    -5.06951708e-06
64    -2.46495479e-06
65    7.80958824e-15
66    3.85306362e-05
67    0.000228158378
68    -0.000129810544
69    1.21443607e-15
70    0.000995495758
71    0.00110826796
72    -0.000123200865
73    -1.95075335e-14
74    0.00117423377
75    0.000259323157
76    0.000448813509
77    -5.90396637e-14
78    2.57331086e-06
79    9.11127113e-17
80    -3.60264542e-07
81    -9.88003878e-16
82    -4.36457413e-06
83    3.50027599e-07
84    2.66059898e-06
85    1.30606934e-05
86    4.4391665e-05
87    0.000110387181
88    5.40701568e-05
89    0.000156808507
90    2.15041196e-06
91    4.53263913e-07
92    2.4802607e-15
93    -5.15567292e-06
94    -5.28599161e-06
95    -2.04363653e-06
96    1.91235326e-15
97    6.99656712e-05
98    4.71944257e-05
99    -1.16873224e-05
100    9.69586414e-15
101    0.000429753082
102    3.11979967e-05
103    -8.39116753e-05
104    -3.05327824e-15
105    0.00249766867
106    0.000395882879
107    -6.98605275e-05
108    1.82276644e-14
109    -1.33075488e-06
110    -4.16700676e-16
111    -9.30093708e-07
112    2.88722438e-16
113    3.71071455e-07
114    1.02903379e-08
115    1.23157737e-07
116    3.6199497e-07
117    3.10174559e-06
118    1.17676807e-05
119    0.000147309956
120    8.82015488e-07
121    -2.94130125e-05
122    -2.30846497e-05
123    -4.73833468e-16
124    -0.000491800854
125    -0.000494689605
126    -0.000318630822
127    -5.16968069e-15
128    0.00075650404
129    0.000218823076
130    0.0001440883
131    -7.88459483e-18
132    0.000808289362
133    0.00319681307
134    0.00162633619
135    -7.92806196e-14
136    -0.000171379009
137    0.00043855286
138    -0.000801559405
139    5.71281369e-14
140    -0.000272191258
141    -1.70556658e-16
142    0.000104488209
143    -1.67542613e-15
144    -0.00012523979
145    -0.00104361602
146    -0.0079388972
147    -0.038926528
148    -0.13247697
149    -0.327877586
150    -0.155826342
151    -0.471052332
152    0.00159393607
153    0.000985255542
154    -2.19401209e-15
155    -0.00525584036
156    -0.00074475898
157    -0.000463083269
158    -1.4738331e-15
159    0.00087664691
160    0.000301390722
161    0.000176140986
162    -1.0053098e-14
163    -0.00308222538
164    0.000177553643
165    0.000162445991
166    8.04464147e-15
167    -0.00676011118
168    0.00126279215
169    0.000408108423
170    -3.29241705e-15
171    0.000114207373
172    1.52999022e-16
173    -9.81844546e-05
174    3.54315772e-16
175    5.04203196e-05
176    3.97155586e-10
177    -2.18416039e-08
178    6.85338907e-08
179    -4.56556903e-07
180    4.78572738e-06
181    2.06896843e-05
182    -1.45650657e-05
183    1.50901999e-05
184    -4.97903152e-07
185    5.3401268e-16
186    -1.98864856e-05
187    -4.94606732e-05
188    5.26313548e-06
189    2.60133186e-15
190    -0.000128295885
191    1.27852261e-05
192    7.41153442e-05
193    -4.85342688e-15
194    0.000160031099
195    0.00011054529
196    -8.90385212e-05
197    2.81624801e-14
198    0.0022358052
199    0.00297501639
200    -5.03437338e-05
201    2.10131531e-14
202    1.2399347e-05
203    -6.77986331e-16
204    5.42799513e-06
205    -1.1431091e-15
206    -2.74227369e-05
207    1.16500562e-10
208    -3.13174752e-09
209    1.3643731e-08
210    -6.74933545e-08
211    7.43472604e-07
212    2.94063229e-06
213    -1.91156464e-06
214    5.75550765e-07
215    -7.01960484e-07
216    5.82358443e-16
217    -1.20504841e-06
218    -4.4439645e-06
219    3.38515196e-06
220    5.23610933e-15
221    -0.000126466652
222    -8.48870958e-05
223    -3.69695414e-05
224    -3.53007631e-15
225    -0.000689727011
226    -0.000251186046
227    -4.78296972e-05
228    3.04599024e-14
229    9.18946753e-05
230    -0.000280431094
231    0.000144694247
232    -1.57401776e-14
233    3.48639778e-06
234    6.23985032e-16
235    -4.03787473e-07
236    -5.29676986e-16
237    1.33426702e-06
238    -1.88463923e-09
239    -1.20533822e-08
240    -8.20824065e-08
241    -1.85478262e-07
242    -5.08963951e-07
243    3.74773624e-06
244    -2.82310039e-06
245    7.11423678e-06
246    1.20701773e-05
247    -2.46218782e-15
248    3.39646363e-06
249    -1.8049905e-05
250    -6.41041407e-05
251    1.02958881e-15
252    -0.000231644788
253    0.000177933947
254    -1.39004063e-05
255    -1.57094135e-14
256    0.00322605088
257    -0.00167004519
258    2.29153378e-05
259    6.87907116e-14
260    -0.000594392058
261    -0.000304859116
262    -0.000135972175
263    -1.30401747e-13
264    -3.89896258e-05
265    -1.63377062e-16
266    -1.00349058e-06
267    -1.61478832e-17
268    3.91147495e-05
269    -6.30838295e-06
270    -6.04493459e-05
271    3.77686169e-05
272    0.000979355992
273    1.61764534e-05
274    -4.95249938e-06
275    -1.12905846e-15
[5D]