[Molden Format]
[Atoms] (Angs)
  C      1    6     -0.00714236     -1.70213747     -0.00000000
  H      2    1     -2.06882847     -1.44022412      0.00000000
  H      3    1     -0.12337987     -2.77567521      0.00000000
  H      4    1      0.04651892      1.98813947     -0.00000000
  C      5    6     -1.21953563      0.40211669      0.00000000
  O      6    8     -2.25921553      1.03043814      0.00000000
  C      7    6      1.28797806      0.34644937     -0.00000000
  O      8    8      2.31273661      1.00537216     -0.00000000
  N      9    7      0.03446295      0.97739857     -0.00000000
  N     10    7     -1.17287765     -0.98229824      0.00000000
  C     11    6      1.20107039     -1.10433419     -0.00000000
  H     12    1      2.11220096     -1.67699125     -0.00000000
[GTO]
1    0
S    1    1.000000
   4.56324000E+03    1.96665000E-03 
S    1    1.000000
   6.82024000E+02    1.52306000E-02 
S    1    1.000000
   1.54973000E+02    7.61269000E-02 
S    1    1.000000
   4.44553000E+01    2.60801000E-01 
S    1    1.000000
   1.30290000E+01    6.16462000E-01 
S    1    1.000000
   1.82773000E+00    2.21006000E-01 
SP   3    1.000000
   2.09642000E+01    1.14660000E-01   4.02487000E-02 
   4.80331000E+00    9.19999000E-01   2.37594000E-01 
   1.45933000E+00   -3.03068000E-03   8.15854000E-01 
SP   1    1.000000
   4.83456000E-01    1.00000000E+00   1.00000000E+00 
SP   1    1.000000
   1.45585000E-01    1.00000000E+00   1.00000000E+00 
SP   1    1.000000
   4.38000000E-02    1.00000000E+00   1.00000000E+00 
SP   1    1.000000
   1.31927711E-02    1.00000000E+00   1.00000000E+00 
D    1    1.000000
   6.26000000E-01    1.00000000E+00 

2    0
S    3    1.000000
   3.38650000E+01    2.54938000E-02 
   5.09479000E+00    1.90373000E-01 
   1.15879000E+00    8.52161000E-01 
S    1    1.000000
   3.25840000E-01    1.00000000E+00 
S    1    1.000000
   1.02741000E-01    1.00000000E+00 
S    1    1.000000
   3.60000000E-02    1.00000000E+00 
P    1    1.000000
   7.50000000E-01    1.00000000E+00 

3    0
S    3    1.000000
   3.38650000E+01    2.54938000E-02 
   5.09479000E+00    1.90373000E-01 
   1.15879000E+00    8.52161000E-01 
S    1    1.000000
   3.25840000E-01    1.00000000E+00 
S    1    1.000000
   1.02741000E-01    1.00000000E+00 
S    1    1.000000
   3.60000000E-02    1.00000000E+00 
P    1    1.000000
   7.50000000E-01    1.00000000E+00 

4    0
S    3    1.000000
   3.38650000E+01    2.54938000E-02 
   5.09479000E+00    1.90373000E-01 
   1.15879000E+00    8.52161000E-01 
S    1    1.000000
   3.25840000E-01    1.00000000E+00 
S    1    1.000000
   1.02741000E-01    1.00000000E+00 
S    1    1.000000
   3.60000000E-02    1.00000000E+00 
P    1    1.000000
   7.50000000E-01    1.00000000E+00 

5    0
S    1    1.000000
   4.56324000E+03    1.96665000E-03 
S    1    1.000000
   6.82024000E+02    1.52306000E-02 
S    1    1.000000
   1.54973000E+02    7.61269000E-02 
S    1    1.000000
   4.44553000E+01    2.60801000E-01 
S    1    1.000000
   1.30290000E+01    6.16462000E-01 
S    1    1.000000
   1.82773000E+00    2.21006000E-01 
SP   3    1.000000
   2.09642000E+01    1.14660000E-01   4.02487000E-02 
   4.80331000E+00    9.19999000E-01   2.37594000E-01 
   1.45933000E+00   -3.03068000E-03   8.15854000E-01 
SP   1    1.000000
   4.83456000E-01    1.00000000E+00   1.00000000E+00 
SP   1    1.000000
   1.45585000E-01    1.00000000E+00   1.00000000E+00 
SP   1    1.000000
   4.38000000E-02    1.00000000E+00   1.00000000E+00 
SP   1    1.000000
   1.31927711E-02    1.00000000E+00   1.00000000E+00 
D    1    1.000000
   6.26000000E-01    1.00000000E+00 

6    0
S    1    1.000000
   8.58850000E+03    1.89515000E-03 
S    1    1.000000
   1.29723000E+03    1.43859000E-02 
S    1    1.000000
   2.99296000E+02    7.07320000E-02 
S    1    1.000000
   8.73771000E+01    2.40001000E-01 
S    1    1.000000
   2.56789000E+01    5.94797000E-01 
S    1    1.000000
   3.74004000E+00    2.80802000E-01 
SP   3    1.000000
   4.21175000E+01    1.13889000E-01   3.65114000E-02 
   9.62837000E+00    9.20811000E-01   2.37153000E-01 
   2.85332000E+00   -3.27447000E-03   8.19702000E-01 
SP   1    1.000000
   9.05661000E-01    1.00000000E+00   1.00000000E+00 
SP   1    1.000000
   2.55611000E-01    1.00000000E+00   1.00000000E+00 
SP   1    1.000000
   8.45000000E-02    1.00000000E+00   1.00000000E+00 
SP   1    1.000000
   2.54518072E-02    1.00000000E+00   1.00000000E+00 
D    1    1.000000
   1.29200000E+00    1.00000000E+00 

7    0
S    1    1.000000
   4.56324000E+03    1.96665000E-03 
S    1    1.000000
   6.82024000E+02    1.52306000E-02 
S    1    1.000000
   1.54973000E+02    7.61269000E-02 
S    1    1.000000
   4.44553000E+01    2.60801000E-01 
S    1    1.000000
   1.30290000E+01    6.16462000E-01 
S    1    1.000000
   1.82773000E+00    2.21006000E-01 
SP   3    1.000000
   2.09642000E+01    1.14660000E-01   4.02487000E-02 
   4.80331000E+00    9.19999000E-01   2.37594000E-01 
   1.45933000E+00   -3.03068000E-03   8.15854000E-01 
SP   1    1.000000
   4.83456000E-01    1.00000000E+00   1.00000000E+00 
SP   1    1.000000
   1.45585000E-01    1.00000000E+00   1.00000000E+00 
SP   1    1.000000
   4.38000000E-02    1.00000000E+00   1.00000000E+00 
SP   1    1.000000
   1.31927711E-02    1.00000000E+00   1.00000000E+00 
D    1    1.000000
   6.26000000E-01    1.00000000E+00 

8    0
S    1    1.000000
   8.58850000E+03    1.89515000E-03 
S    1    1.000000
   1.29723000E+03    1.43859000E-02 
S    1    1.000000
   2.99296000E+02    7.07320000E-02 
S    1    1.000000
   8.73771000E+01    2.40001000E-01 
S    1    1.000000
   2.56789000E+01    5.94797000E-01 
S    1    1.000000
   3.74004000E+00    2.80802000E-01 
SP   3    1.000000
   4.21175000E+01    1.13889000E-01   3.65114000E-02 
   9.62837000E+00    9.20811000E-01   2.37153000E-01 
   2.85332000E+00   -3.27447000E-03   8.19702000E-01 
SP   1    1.000000
   9.05661000E-01    1.00000000E+00   1.00000000E+00 
SP   1    1.000000
   2.55611000E-01    1.00000000E+00   1.00000000E+00 
SP   1    1.000000
   8.45000000E-02    1.00000000E+00   1.00000000E+00 
SP   1    1.000000
   2.54518072E-02    1.00000000E+00   1.00000000E+00 
D    1    1.000000
   1.29200000E+00    1.00000000E+00 

9    0
S    1    1.000000
   6.29348000E+03    1.96979000E-03 
S    1    1.000000
   9.49044000E+02    1.49613000E-02 
S    1    1.000000
   2.18776000E+02    7.35006000E-02 
S    1    1.000000
   6.36916000E+01    2.48937000E-01 
S    1    1.000000
   1.88282000E+01    6.02460000E-01 
S    1    1.000000
   2.72023000E+00    2.56202000E-01 
SP   3    1.000000
   3.06331000E+01    1.11906000E-01   3.83119000E-02 
   7.02614000E+00    9.21666000E-01   2.37403000E-01 
   2.11205000E+00   -2.56919000E-03   8.17592000E-01 
SP   1    1.000000
   6.84009000E-01    1.00000000E+00   1.00000000E+00 
SP   1    1.000000
   2.00878000E-01    1.00000000E+00   1.00000000E+00 
SP   1    1.000000
   6.39000000E-02    1.00000000E+00   1.00000000E+00 
SP   1    1.000000
   1.92469880E-02    1.00000000E+00   1.00000000E+00 
D    1    1.000000
   9.13000000E-01    1.00000000E+00 

10    0
S    1    1.000000
   6.29348000E+03    1.96979000E-03 
S    1    1.000000
   9.49044000E+02    1.49613000E-02 
S    1    1.000000
   2.18776000E+02    7.35006000E-02 
S    1    1.000000
   6.36916000E+01    2.48937000E-01 
S    1    1.000000
   1.88282000E+01    6.02460000E-01 
S    1    1.000000
   2.72023000E+00    2.56202000E-01 
SP   3    1.000000
   3.06331000E+01    1.11906000E-01   3.83119000E-02 
   7.02614000E+00    9.21666000E-01   2.37403000E-01 
   2.11205000E+00   -2.56919000E-03   8.17592000E-01 
SP   1    1.000000
   6.84009000E-01    1.00000000E+00   1.00000000E+00 
SP   1    1.000000
   2.00878000E-01    1.00000000E+00   1.00000000E+00 
SP   1    1.000000
   6.39000000E-02    1.00000000E+00   1.00000000E+00 
SP   1    1.000000
   1.92469880E-02    1.00000000E+00   1.00000000E+00 
D    1    1.000000
   9.13000000E-01    1.00000000E+00 

11    0
S    1    1.000000
   4.56324000E+03    1.96665000E-03 
S    1    1.000000
   6.82024000E+02    1.52306000E-02 
S    1    1.000000
   1.54973000E+02    7.61269000E-02 
S    1    1.000000
   4.44553000E+01    2.60801000E-01 
S    1    1.000000
   1.30290000E+01    6.16462000E-01 
S    1    1.000000
   1.82773000E+00    2.21006000E-01 
SP   3    1.000000
   2.09642000E+01    1.14660000E-01   4.02487000E-02 
   4.80331000E+00    9.19999000E-01   2.37594000E-01 
   1.45933000E+00   -3.03068000E-03   8.15854000E-01 
SP   1    1.000000
   4.83456000E-01    1.00000000E+00   1.00000000E+00 
SP   1    1.000000
   1.45585000E-01    1.00000000E+00   1.00000000E+00 
SP   1    1.000000
   4.38000000E-02    1.00000000E+00   1.00000000E+00 
SP   1    1.000000
   1.31927711E-02    1.00000000E+00   1.00000000E+00 
D    1    1.000000
   6.26000000E-01    1.00000000E+00 

12    0
S    3    1.000000
   3.38650000E+01    2.54938000E-02 
   5.09479000E+00    1.90373000E-01 
   1.15879000E+00    8.52161000E-01 
S    1    1.000000
   3.25840000E-01    1.00000000E+00 
S    1    1.000000
   1.02741000E-01    1.00000000E+00 
S    1    1.000000
   3.60000000E-02    1.00000000E+00 
P    1    1.000000
   7.50000000E-01    1.00000000E+00 

[MO]
Sym=X
Ene=0.011248
Spin=Alpha
Occup=1
1    1.22092442e-06
2    6.16787345e-06
3    2.07732025e-05
4    5.10604596e-05
5    1.70754886e-05
6    5.79564472e-05
7    -5.83777007e-06
8    1.22821768e-05
9    -1.3017086e-15
10    2.81188895e-05
11    -0.000105452743
12    2.14838536e-05
13    -2.79426772e-15
14    -0.000109335067
15    -3.43151598e-05
16    -1.21716299e-05
17    -2.03688179e-15
18    -0.00185438058
19    3.37056476e-05
20    -0.0011713891
21    -1.73132864e-14
22    -0.000121379353
23    0.000391276616
24    -0.000345285342
25    2.46012431e-14
26    -5.43511416e-05
27    -6.5895672e-16
28    -7.81467577e-06
29    1.33840226e-15
30    1.57736932e-05
31    4.15946295e-05
32    6.51350268e-05
33    0.000213815079
34    0.000300491682
35    2.57212589e-05
36    8.74480428e-06
37    -2.24076732e-15
38    -1.17147747e-06
39    2.36998062e-05
40    -6.44463807e-05
41    -0.000930105945
42    -1.13941194e-06
43    9.67024481e-06
44    -8.95692878e-16
45    -0.000230513085
46    -6.30304749e-05
47    -0.000374007914
48    -0.000381240612
49    6.08242907e-06
50    9.60183699e-05
51    -3.87143874e-16
52    -3.37573903e-05
53    -0.00026133199
54    -0.00130364272
55    -0.00447561574
56    -0.0105731615
57    -0.00383245817
58    -0.0141494327
59    -6.81851157e-05
60    -4.07048648e-06
61    -3.69460069e-15
62    -0.000183667829
63    -0.000320161169
64    -0.000202808555
65    -5.91368862e-15
66    9.83724658e-05
67    0.000190022651
68    8.5361679e-05
69    -9.32903144e-15
70    0.00060521633
71    0.000904148478
72    -0.000401375078
73    -1.20589341e-14
74    0.00106776253
75    7.2285425e-06
76    -0.000344234006
77    -1.34013115e-14
78    -0.000161182609
79    4.54867012e-16
80    -3.657453e-06
81    8.67070555e-16
82    -0.00018348031
83    0.000123580945
84    0.000940073818
85    0.00460958677
86    0.015687071
87    0.0388302244
88    0.0184575783
89    0.0557759312
90    0.000207108772
91    -0.000107106428
92    -2.52831124e-15
93    0.000575415701
94    -0.000142214203
95    6.80809683e-05
96    -3.56013554e-15
97    -0.000120238616
98    5.39482133e-05
99    -4.55695016e-05
100    -6.74443076e-15
101    0.00053812513
102    3.0635262e-06
103    -2.03169392e-05
104    -5.89039791e-15
105    0.00162593204
106    0.000231971111
107    -0.000164025463
108    -2.65270673e-15
109    1.52202474e-05
110    4.37882707e-16
111    1.46851179e-05
112    -8.60672357e-16
113    -3.52279965e-05
114    3.85708716e-06
115    2.98478854e-05
116    0.000149043681
117    0.000511436222
118    0.00121349125
119    0.00048131764
120    0.00162831135
121    4.07375483e-05
122    -2.46371895e-05
123    3.20718429e-15
124    -0.0002521083
125    0.000200220847
126    -0.000142635088
127    2.93123129e-15
128    0.000394473984
129    -5.42237378e-05
130    0.000107700052
131    8.94365715e-15
132    0.00157808163
133    -0.000490927217
134    -0.000242055196
135    -3.28951198e-14
136    -0.000287406602
137    -0.000371492257
138    -9.66797352e-06
139    -1.40447067e-14
140    9.7823597e-05
141    8.50312449e-16
142    8.89411276e-08
143    1.78314881e-15
144    -0.000122996027
145    -6.21233904e-05
146    -0.000472594798
147    -0.00231714895
148    -0.00788627359
149    -0.0195143383
150    -0.00926252004
151    -0.0280509261
152    7.795158e-05
153    6.14186305e-05
154    2.50744274e-15
155    -0.000326408902
156    -1.14414065e-05
157    -1.76517606e-05
158    4.76518348e-15
159    -2.17092992e-05
160    2.22188338e-05
161    1.11542881e-05
162    4.08534696e-15
163    -0.000138737155
164    6.71990992e-05
165    2.74872772e-05
166    1.42982623e-14
167    3.09538259e-05
168    6.33246175e-05
169    2.60363458e-05
170    1.24061583e-14
171    5.34146388e-06
172    -4.34120652e-16
173    -7.67405605e-07
174    -7.2010613e-16
175    -1.51135206e-05
176    -0.00105966053
177    -0.00806825165
178    -0.0395325308
179    -0.134187717
180    -0.324442071
181    -0.139141998
182    -0.451474092
183    0.000140528399
184    0.00023474066
185    -1.36151898e-16
186    -0.00411944732
187    -8.23817412e-05
188    -9.56213001e-05
189    -1.01830871e-15
190    0.000226626023
191    4.14716077e-05
192    0.000115621841
193    -8.0852649e-16
194    -0.00228385757
195    8.01047826e-06
196    0.00102077932
197    8.01142571e-15
198    -0.002066589
199    0.000224250376
200    0.000522733717
201    3.45411138e-14
202    9.06763671e-06
203    3.05588703e-16
204    5.05762461e-06
205    1.03732729e-15
206    1.36983701e-05
207    0.000242199332
208    0.0018440493
209    0.00903570657
210    0.0306688737
211    0.0741664072
212    0.0319591753
213    0.103106919
214    9.82893093e-05
215    7.82999341e-05
216    -3.31063893e-15
217    0.000990837331
218    -7.17902809e-05
219    -0.000113785446
220    -4.3118197e-15
221    -0.000216262201
222    7.77429415e-05
223    9.79180119e-05
224    -9.65229695e-15
225    0.00101489412
226    0.000465854543
227    0.000284787358
228    5.93466487e-15
229    0.000686075937
230    0.000522947121
231    -0.000271123654
232    -5.28552827e-15
233    9.61789146e-06
234    -5.99773982e-16
235    8.08782505e-05
236    1.30653711e-16
237    4.18960918e-05
238    -3.58698169e-07
239    -2.81236927e-06
240    -1.37745393e-05
241    -4.8307701e-05
242    -0.000105526714
243    -1.03262359e-05
244    -0.000170898609
245    1.90342537e-06
246    2.0450503e-05
247    4.43043699e-16
248    -5.30825803e-05
249    -2.25266427e-05
250    -9.2245496e-05
251    1.56015617e-15
252    0.000158874683
253    -9.53967312e-05
254    7.70318654e-05
255    6.6560773e-16
256    0.00054382871
257    -0.000286583579
258    0.000182834853
259    2.6613374e-14
260    -0.000361684346
261    0.000328495656
262    0.000595750708
263    -6.91905692e-15
264    1.01300402e-05
265    1.25717713e-15
266    1.36089035e-07
267    1.13052112e-15
268    5.08745312e-05
269    -5.72827059e-06
270    -1.73052267e-06
271    8.74467712e-05
272    0.000178177493
273    2.14931569e-06
274    -7.03654085e-06
275    7.22659862e-16
[5D]