[Molden Format]
[Atoms] (Angs)
  C      1    6     -0.00714236     -1.70213747     -0.00000000
  H      2    1     -2.06882847     -1.44022412      0.00000000
  H      3    1     -0.12337987     -2.77567521      0.00000000
  H      4    1      0.04651892      1.98813947     -0.00000000
  C      5    6     -1.21953563      0.40211669      0.00000000
  O      6    8     -2.25921553      1.03043814      0.00000000
  C      7    6      1.28797806      0.34644937     -0.00000000
  O      8    8      2.31273661      1.00537216     -0.00000000
  N      9    7      0.03446295      0.97739857     -0.00000000
  N     10    7     -1.17287765     -0.98229824      0.00000000
  C     11    6      1.20107039     -1.10433419     -0.00000000
  H     12    1      2.11220096     -1.67699125     -0.00000000
[GTO]
1    0
S    1    1.000000
   4.56324000E+03    1.96665000E-03 
S    1    1.000000
   6.82024000E+02    1.52306000E-02 
S    1    1.000000
   1.54973000E+02    7.61269000E-02 
S    1    1.000000
   4.44553000E+01    2.60801000E-01 
S    1    1.000000
   1.30290000E+01    6.16462000E-01 
S    1    1.000000
   1.82773000E+00    2.21006000E-01 
SP   3    1.000000
   2.09642000E+01    1.14660000E-01   4.02487000E-02 
   4.80331000E+00    9.19999000E-01   2.37594000E-01 
   1.45933000E+00   -3.03068000E-03   8.15854000E-01 
SP   1    1.000000
   4.83456000E-01    1.00000000E+00   1.00000000E+00 
SP   1    1.000000
   1.45585000E-01    1.00000000E+00   1.00000000E+00 
SP   1    1.000000
   4.38000000E-02    1.00000000E+00   1.00000000E+00 
SP   1    1.000000
   1.31927711E-02    1.00000000E+00   1.00000000E+00 
D    1    1.000000
   6.26000000E-01    1.00000000E+00 

2    0
S    3    1.000000
   3.38650000E+01    2.54938000E-02 
   5.09479000E+00    1.90373000E-01 
   1.15879000E+00    8.52161000E-01 
S    1    1.000000
   3.25840000E-01    1.00000000E+00 
S    1    1.000000
   1.02741000E-01    1.00000000E+00 
S    1    1.000000
   3.60000000E-02    1.00000000E+00 
P    1    1.000000
   7.50000000E-01    1.00000000E+00 

3    0
S    3    1.000000
   3.38650000E+01    2.54938000E-02 
   5.09479000E+00    1.90373000E-01 
   1.15879000E+00    8.52161000E-01 
S    1    1.000000
   3.25840000E-01    1.00000000E+00 
S    1    1.000000
   1.02741000E-01    1.00000000E+00 
S    1    1.000000
   3.60000000E-02    1.00000000E+00 
P    1    1.000000
   7.50000000E-01    1.00000000E+00 

4    0
S    3    1.000000
   3.38650000E+01    2.54938000E-02 
   5.09479000E+00    1.90373000E-01 
   1.15879000E+00    8.52161000E-01 
S    1    1.000000
   3.25840000E-01    1.00000000E+00 
S    1    1.000000
   1.02741000E-01    1.00000000E+00 
S    1    1.000000
   3.60000000E-02    1.00000000E+00 
P    1    1.000000
   7.50000000E-01    1.00000000E+00 

5    0
S    1    1.000000
   4.56324000E+03    1.96665000E-03 
S    1    1.000000
   6.82024000E+02    1.52306000E-02 
S    1    1.000000
   1.54973000E+02    7.61269000E-02 
S    1    1.000000
   4.44553000E+01    2.60801000E-01 
S    1    1.000000
   1.30290000E+01    6.16462000E-01 
S    1    1.000000
   1.82773000E+00    2.21006000E-01 
SP   3    1.000000
   2.09642000E+01    1.14660000E-01   4.02487000E-02 
   4.80331000E+00    9.19999000E-01   2.37594000E-01 
   1.45933000E+00   -3.03068000E-03   8.15854000E-01 
SP   1    1.000000
   4.83456000E-01    1.00000000E+00   1.00000000E+00 
SP   1    1.000000
   1.45585000E-01    1.00000000E+00   1.00000000E+00 
SP   1    1.000000
   4.38000000E-02    1.00000000E+00   1.00000000E+00 
SP   1    1.000000
   1.31927711E-02    1.00000000E+00   1.00000000E+00 
D    1    1.000000
   6.26000000E-01    1.00000000E+00 

6    0
S    1    1.000000
   8.58850000E+03    1.89515000E-03 
S    1    1.000000
   1.29723000E+03    1.43859000E-02 
S    1    1.000000
   2.99296000E+02    7.07320000E-02 
S    1    1.000000
   8.73771000E+01    2.40001000E-01 
S    1    1.000000
   2.56789000E+01    5.94797000E-01 
S    1    1.000000
   3.74004000E+00    2.80802000E-01 
SP   3    1.000000
   4.21175000E+01    1.13889000E-01   3.65114000E-02 
   9.62837000E+00    9.20811000E-01   2.37153000E-01 
   2.85332000E+00   -3.27447000E-03   8.19702000E-01 
SP   1    1.000000
   9.05661000E-01    1.00000000E+00   1.00000000E+00 
SP   1    1.000000
   2.55611000E-01    1.00000000E+00   1.00000000E+00 
SP   1    1.000000
   8.45000000E-02    1.00000000E+00   1.00000000E+00 
SP   1    1.000000
   2.54518072E-02    1.00000000E+00   1.00000000E+00 
D    1    1.000000
   1.29200000E+00    1.00000000E+00 

7    0
S    1    1.000000
   4.56324000E+03    1.96665000E-03 
S    1    1.000000
   6.82024000E+02    1.52306000E-02 
S    1    1.000000
   1.54973000E+02    7.61269000E-02 
S    1    1.000000
   4.44553000E+01    2.60801000E-01 
S    1    1.000000
   1.30290000E+01    6.16462000E-01 
S    1    1.000000
   1.82773000E+00    2.21006000E-01 
SP   3    1.000000
   2.09642000E+01    1.14660000E-01   4.02487000E-02 
   4.80331000E+00    9.19999000E-01   2.37594000E-01 
   1.45933000E+00   -3.03068000E-03   8.15854000E-01 
SP   1    1.000000
   4.83456000E-01    1.00000000E+00   1.00000000E+00 
SP   1    1.000000
   1.45585000E-01    1.00000000E+00   1.00000000E+00 
SP   1    1.000000
   4.38000000E-02    1.00000000E+00   1.00000000E+00 
SP   1    1.000000
   1.31927711E-02    1.00000000E+00   1.00000000E+00 
D    1    1.000000
   6.26000000E-01    1.00000000E+00 

8    0
S    1    1.000000
   8.58850000E+03    1.89515000E-03 
S    1    1.000000
   1.29723000E+03    1.43859000E-02 
S    1    1.000000
   2.99296000E+02    7.07320000E-02 
S    1    1.000000
   8.73771000E+01    2.40001000E-01 
S    1    1.000000
   2.56789000E+01    5.94797000E-01 
S    1    1.000000
   3.74004000E+00    2.80802000E-01 
SP   3    1.000000
   4.21175000E+01    1.13889000E-01   3.65114000E-02 
   9.62837000E+00    9.20811000E-01   2.37153000E-01 
   2.85332000E+00   -3.27447000E-03   8.19702000E-01 
SP   1    1.000000
   9.05661000E-01    1.00000000E+00   1.00000000E+00 
SP   1    1.000000
   2.55611000E-01    1.00000000E+00   1.00000000E+00 
SP   1    1.000000
   8.45000000E-02    1.00000000E+00   1.00000000E+00 
SP   1    1.000000
   2.54518072E-02    1.00000000E+00   1.00000000E+00 
D    1    1.000000
   1.29200000E+00    1.00000000E+00 

9    0
S    1    1.000000
   6.29348000E+03    1.96979000E-03 
S    1    1.000000
   9.49044000E+02    1.49613000E-02 
S    1    1.000000
   2.18776000E+02    7.35006000E-02 
S    1    1.000000
   6.36916000E+01    2.48937000E-01 
S    1    1.000000
   1.88282000E+01    6.02460000E-01 
S    1    1.000000
   2.72023000E+00    2.56202000E-01 
SP   3    1.000000
   3.06331000E+01    1.11906000E-01   3.83119000E-02 
   7.02614000E+00    9.21666000E-01   2.37403000E-01 
   2.11205000E+00   -2.56919000E-03   8.17592000E-01 
SP   1    1.000000
   6.84009000E-01    1.00000000E+00   1.00000000E+00 
SP   1    1.000000
   2.00878000E-01    1.00000000E+00   1.00000000E+00 
SP   1    1.000000
   6.39000000E-02    1.00000000E+00   1.00000000E+00 
SP   1    1.000000
   1.92469880E-02    1.00000000E+00   1.00000000E+00 
D    1    1.000000
   9.13000000E-01    1.00000000E+00 

10    0
S    1    1.000000
   6.29348000E+03    1.96979000E-03 
S    1    1.000000
   9.49044000E+02    1.49613000E-02 
S    1    1.000000
   2.18776000E+02    7.35006000E-02 
S    1    1.000000
   6.36916000E+01    2.48937000E-01 
S    1    1.000000
   1.88282000E+01    6.02460000E-01 
S    1    1.000000
   2.72023000E+00    2.56202000E-01 
SP   3    1.000000
   3.06331000E+01    1.11906000E-01   3.83119000E-02 
   7.02614000E+00    9.21666000E-01   2.37403000E-01 
   2.11205000E+00   -2.56919000E-03   8.17592000E-01 
SP   1    1.000000
   6.84009000E-01    1.00000000E+00   1.00000000E+00 
SP   1    1.000000
   2.00878000E-01    1.00000000E+00   1.00000000E+00 
SP   1    1.000000
   6.39000000E-02    1.00000000E+00   1.00000000E+00 
SP   1    1.000000
   1.92469880E-02    1.00000000E+00   1.00000000E+00 
D    1    1.000000
   9.13000000E-01    1.00000000E+00 

11    0
S    1    1.000000
   4.56324000E+03    1.96665000E-03 
S    1    1.000000
   6.82024000E+02    1.52306000E-02 
S    1    1.000000
   1.54973000E+02    7.61269000E-02 
S    1    1.000000
   4.44553000E+01    2.60801000E-01 
S    1    1.000000
   1.30290000E+01    6.16462000E-01 
S    1    1.000000
   1.82773000E+00    2.21006000E-01 
SP   3    1.000000
   2.09642000E+01    1.14660000E-01   4.02487000E-02 
   4.80331000E+00    9.19999000E-01   2.37594000E-01 
   1.45933000E+00   -3.03068000E-03   8.15854000E-01 
SP   1    1.000000
   4.83456000E-01    1.00000000E+00   1.00000000E+00 
SP   1    1.000000
   1.45585000E-01    1.00000000E+00   1.00000000E+00 
SP   1    1.000000
   4.38000000E-02    1.00000000E+00   1.00000000E+00 
SP   1    1.000000
   1.31927711E-02    1.00000000E+00   1.00000000E+00 
D    1    1.000000
   6.26000000E-01    1.00000000E+00 

12    0
S    3    1.000000
   3.38650000E+01    2.54938000E-02 
   5.09479000E+00    1.90373000E-01 
   1.15879000E+00    8.52161000E-01 
S    1    1.000000
   3.25840000E-01    1.00000000E+00 
S    1    1.000000
   1.02741000E-01    1.00000000E+00 
S    1    1.000000
   3.60000000E-02    1.00000000E+00 
P    1    1.000000
   7.50000000E-01    1.00000000E+00 

[MO]
Sym=X
Ene=0.002593
Spin=Alpha
Occup=1
1    -1.24296587e-08
2    1.20051707e-07
3    -3.14051469e-07
4    4.79172701e-06
5    1.87788937e-05
6    -1.08807053e-05
7    2.50906425e-07
8    2.34495127e-06
9    -5.80936931e-16
10    -4.89544943e-05
11    -9.5930734e-06
12    -1.48887504e-05
13    -4.22385399e-16
14    0.000354072334
15    3.23142921e-05
16    0.000209163731
17    2.56184061e-15
18    -0.00198170871
19    -0.000441104934
20    0.000248131615
21    -5.41469622e-14
22    -0.000711878738
23    -0.000257985496
24    -8.7374988e-05
25    1.00885199e-13
26    -1.35919019e-05
27    2.44668985e-16
28    -2.66315619e-06
29    -8.50657147e-16
30    8.4174826e-06
31    -4.45833276e-07
32    -1.94286287e-05
33    1.96758698e-07
34    -0.00015247194
35    -3.19785294e-07
36    -1.91139226e-06
37    9.31493936e-16
38    1.55545385e-06
39    9.72586645e-06
40    0.000158027275
41    0.000296330855
42    -2.9121555e-06
43    3.42689175e-06
44    -7.83923777e-16
45    -8.86638733e-06
46    6.53283464e-06
47    -3.0092969e-05
48    -9.78345199e-05
49    1.04159228e-05
50    -4.65731745e-07
51    8.93699543e-16
52    8.08056884e-10
53    -2.96441517e-09
54    5.21522597e-08
55    -9.42227141e-08
56    1.69716786e-06
57    5.49160817e-06
58    -3.57850592e-06
59    2.35145104e-07
60    -3.63689282e-07
61    1.91831984e-15
62    -1.37157238e-05
63    -9.72850546e-06
64    3.07577331e-07
65    7.74438988e-15
66    3.09185079e-05
67    0.000231907205
68    -0.000132183068
69    1.20425525e-15
70    0.000973921
71    0.00113333716
72    -0.000139232103
73    -1.90923281e-14
74    0.00118685275
75    0.000260279277
76    0.000451100731
77    -5.89796923e-14
78    1.4401907e-07
79    8.91558436e-17
80    -1.30989018e-06
81    -9.85613769e-16
82    -3.07497276e-06
83    9.81418881e-06
84    7.46553273e-05
85    0.000366071864
86    0.00124577522
87    0.00308383489
88    0.00146634991
89    0.00442893009
90    1.72793476e-05
91    -8.60886586e-06
92    2.46968068e-15
93    4.15948224e-05
94    -1.24403008e-05
95    2.25075456e-06
96    1.88234736e-15
97    6.29676141e-05
98    5.04487041e-05
99    -1.36061224e-05
100    9.68402455e-15
101    0.000460005853
102    3.35263811e-05
103    -8.53593881e-05
104    -3.16357815e-15
105    0.00256938782
106    0.000409181194
107    -7.64556158e-05
108    1.82446287e-14
109    -3.37499539e-07
110    -4.19273053e-16
111    -3.44885544e-07
112    2.84537262e-16
113    -9.1901412e-08
114    1.02827677e-08
115    1.23166627e-07
116    3.6154151e-07
117    3.10212526e-06
118    1.17530327e-05
119    0.000147249655
120    9.09642098e-07
121    -2.9393399e-05
122    -2.30778885e-05
123    -4.67746418e-16
124    -0.000491653679
125    -0.000494770483
126    -0.00031859813
127    -5.11664298e-15
128    0.000757241293
129    0.000220726369
130    0.000145535954
131    -4.1376339e-17
132    0.000793021982
133    0.00320658684
134    0.00162945673
135    -7.86172781e-14
136    -0.000174846848
137    0.000440039214
138    -0.00080390214
139    5.75532357e-14
140    -0.000272146274
141    -1.75898883e-16
142    0.000104469934
143    -1.67347379e-15
144    -0.000125187542
145    -0.00104356994
146    -0.00793854662
147    -0.0389248093
148    -0.13247112
149    -0.327863115
150    -0.15581949
151    -0.471031513
152    0.0015938798
153    0.000985209262
154    -2.18293075e-15
155    -0.00525551503
156    -0.000744772308
157    -0.00046306047
158    -1.46708271e-15
159    0.000875813413
160    0.000301875434
161    0.000176316203
162    -9.98865697e-15
163    -0.00308613238
164    0.000177943049
165    0.000163116047
166    8.01925718e-15
167    -0.00678193986
168    0.0012663011
169    0.000408819263
170    -3.38915546e-15
171    0.000114188757
172    1.48013595e-16
173    -9.81695577e-05
174    3.48999281e-16
175    5.0412886e-05
176    3.8734412e-10
177    -2.16180831e-08
178    6.75110715e-08
179    -4.51710393e-07
180    4.72778217e-06
181    2.04487871e-05
182    -1.44012965e-05
183    1.52303786e-05
184    -5.16591316e-07
185    5.50009779e-16
186    -1.95351454e-05
187    -4.99271698e-05
188    5.27822578e-06
189    2.54771195e-15
190    -0.000128119625
191    1.27208157e-05
192    7.38851625e-05
193    -4.72919773e-15
194    0.000161499292
195    0.000110218431
196    -8.72235948e-05
197    2.77842992e-14
198    0.00222166296
199    0.00299709838
200    -5.10366325e-05
201    2.06240932e-14
202    1.24338673e-05
203    -6.79905017e-16
204    5.39370835e-06
205    -1.14126486e-15
206    -2.713354e-05
207    1.066091e-10
208    -2.88765312e-09
209    1.25698687e-08
210    -6.22289214e-08
211    6.81569761e-07
212    2.68237807e-06
213    -1.73638465e-06
214    6.54845673e-07
215    -8.27342343e-07
216    5.8712026e-16
217    -8.11790006e-07
218    -4.6575403e-06
219    3.81803018e-06
220    5.17748238e-15
221    -0.000126568678
222    -8.48386087e-05
223    -3.70286133e-05
224    -3.44464733e-15
225    -0.000688261091
226    -0.00025164249
227    -4.80355781e-05
228    3.00810338e-14
229    7.37681099e-05
230    -0.000276765997
231    0.000137461193
232    -1.58717204e-14
233    3.30544001e-06
234    6.20431318e-16
235    -4.35866917e-07
236    -5.27470133e-16
237    1.1159948e-06
238    -1.88420151e-09
239    -1.20493417e-08
240    -8.20661783e-08
241    -1.85432338e-07
242    -5.09618863e-07
243    3.73767897e-06
244    -2.82003199e-06
245    7.12529108e-06
246    1.20695438e-05
247    -2.44715934e-15
248    3.39963137e-06
249    -1.81647911e-05
250    -6.40955201e-05
251    1.05552614e-15
252    -0.00022961552
253    0.000176835397
254    -1.32659483e-05
255    -1.56310981e-14
256    0.0032503889
257    -0.00167558479
258    2.60726675e-05
259    6.8335079e-14
260    -0.000595577347
261    -0.000305757781
262    -0.000138820175
263    -1.30631806e-13
264    -3.89393523e-05
265    -1.57413397e-16
266    -9.92548581e-07
267    -1.42777626e-17
268    3.91179052e-05
269    -6.29883766e-06
270    -6.02822124e-05
271    3.81654767e-05
272    0.000979376233
273    1.61475284e-05
274    -4.93392243e-06
275    -1.12109588e-15
[5D]