[Molden Format]
[Atoms] (Angs)
  C      1    6     -0.00714236     -1.70213747     -0.00000000
  H      2    1     -2.06882847     -1.44022412      0.00000000
  H      3    1     -0.12337987     -2.77567521      0.00000000
  H      4    1      0.04651892      1.98813947     -0.00000000
  C      5    6     -1.21953563      0.40211669      0.00000000
  O      6    8     -2.25921553      1.03043814      0.00000000
  C      7    6      1.28797806      0.34644937     -0.00000000
  O      8    8      2.31273661      1.00537216     -0.00000000
  N      9    7      0.03446295      0.97739857     -0.00000000
  N     10    7     -1.17287765     -0.98229824      0.00000000
  C     11    6      1.20107039     -1.10433419     -0.00000000
  H     12    1      2.11220096     -1.67699125     -0.00000000
[GTO]
1    0
S    1    1.000000
   4.56324000E+03    1.96665000E-03 
S    1    1.000000
   6.82024000E+02    1.52306000E-02 
S    1    1.000000
   1.54973000E+02    7.61269000E-02 
S    1    1.000000
   4.44553000E+01    2.60801000E-01 
S    1    1.000000
   1.30290000E+01    6.16462000E-01 
S    1    1.000000
   1.82773000E+00    2.21006000E-01 
SP   3    1.000000
   2.09642000E+01    1.14660000E-01   4.02487000E-02 
   4.80331000E+00    9.19999000E-01   2.37594000E-01 
   1.45933000E+00   -3.03068000E-03   8.15854000E-01 
SP   1    1.000000
   4.83456000E-01    1.00000000E+00   1.00000000E+00 
SP   1    1.000000
   1.45585000E-01    1.00000000E+00   1.00000000E+00 
SP   1    1.000000
   4.38000000E-02    1.00000000E+00   1.00000000E+00 
SP   1    1.000000
   1.31927711E-02    1.00000000E+00   1.00000000E+00 
D    1    1.000000
   6.26000000E-01    1.00000000E+00 

2    0
S    3    1.000000
   3.38650000E+01    2.54938000E-02 
   5.09479000E+00    1.90373000E-01 
   1.15879000E+00    8.52161000E-01 
S    1    1.000000
   3.25840000E-01    1.00000000E+00 
S    1    1.000000
   1.02741000E-01    1.00000000E+00 
S    1    1.000000
   3.60000000E-02    1.00000000E+00 
P    1    1.000000
   7.50000000E-01    1.00000000E+00 

3    0
S    3    1.000000
   3.38650000E+01    2.54938000E-02 
   5.09479000E+00    1.90373000E-01 
   1.15879000E+00    8.52161000E-01 
S    1    1.000000
   3.25840000E-01    1.00000000E+00 
S    1    1.000000
   1.02741000E-01    1.00000000E+00 
S    1    1.000000
   3.60000000E-02    1.00000000E+00 
P    1    1.000000
   7.50000000E-01    1.00000000E+00 

4    0
S    3    1.000000
   3.38650000E+01    2.54938000E-02 
   5.09479000E+00    1.90373000E-01 
   1.15879000E+00    8.52161000E-01 
S    1    1.000000
   3.25840000E-01    1.00000000E+00 
S    1    1.000000
   1.02741000E-01    1.00000000E+00 
S    1    1.000000
   3.60000000E-02    1.00000000E+00 
P    1    1.000000
   7.50000000E-01    1.00000000E+00 

5    0
S    1    1.000000
   4.56324000E+03    1.96665000E-03 
S    1    1.000000
   6.82024000E+02    1.52306000E-02 
S    1    1.000000
   1.54973000E+02    7.61269000E-02 
S    1    1.000000
   4.44553000E+01    2.60801000E-01 
S    1    1.000000
   1.30290000E+01    6.16462000E-01 
S    1    1.000000
   1.82773000E+00    2.21006000E-01 
SP   3    1.000000
   2.09642000E+01    1.14660000E-01   4.02487000E-02 
   4.80331000E+00    9.19999000E-01   2.37594000E-01 
   1.45933000E+00   -3.03068000E-03   8.15854000E-01 
SP   1    1.000000
   4.83456000E-01    1.00000000E+00   1.00000000E+00 
SP   1    1.000000
   1.45585000E-01    1.00000000E+00   1.00000000E+00 
SP   1    1.000000
   4.38000000E-02    1.00000000E+00   1.00000000E+00 
SP   1    1.000000
   1.31927711E-02    1.00000000E+00   1.00000000E+00 
D    1    1.000000
   6.26000000E-01    1.00000000E+00 

6    0
S    1    1.000000
   8.58850000E+03    1.89515000E-03 
S    1    1.000000
   1.29723000E+03    1.43859000E-02 
S    1    1.000000
   2.99296000E+02    7.07320000E-02 
S    1    1.000000
   8.73771000E+01    2.40001000E-01 
S    1    1.000000
   2.56789000E+01    5.94797000E-01 
S    1    1.000000
   3.74004000E+00    2.80802000E-01 
SP   3    1.000000
   4.21175000E+01    1.13889000E-01   3.65114000E-02 
   9.62837000E+00    9.20811000E-01   2.37153000E-01 
   2.85332000E+00   -3.27447000E-03   8.19702000E-01 
SP   1    1.000000
   9.05661000E-01    1.00000000E+00   1.00000000E+00 
SP   1    1.000000
   2.55611000E-01    1.00000000E+00   1.00000000E+00 
SP   1    1.000000
   8.45000000E-02    1.00000000E+00   1.00000000E+00 
SP   1    1.000000
   2.54518072E-02    1.00000000E+00   1.00000000E+00 
D    1    1.000000
   1.29200000E+00    1.00000000E+00 

7    0
S    1    1.000000
   4.56324000E+03    1.96665000E-03 
S    1    1.000000
   6.82024000E+02    1.52306000E-02 
S    1    1.000000
   1.54973000E+02    7.61269000E-02 
S    1    1.000000
   4.44553000E+01    2.60801000E-01 
S    1    1.000000
   1.30290000E+01    6.16462000E-01 
S    1    1.000000
   1.82773000E+00    2.21006000E-01 
SP   3    1.000000
   2.09642000E+01    1.14660000E-01   4.02487000E-02 
   4.80331000E+00    9.19999000E-01   2.37594000E-01 
   1.45933000E+00   -3.03068000E-03   8.15854000E-01 
SP   1    1.000000
   4.83456000E-01    1.00000000E+00   1.00000000E+00 
SP   1    1.000000
   1.45585000E-01    1.00000000E+00   1.00000000E+00 
SP   1    1.000000
   4.38000000E-02    1.00000000E+00   1.00000000E+00 
SP   1    1.000000
   1.31927711E-02    1.00000000E+00   1.00000000E+00 
D    1    1.000000
   6.26000000E-01    1.00000000E+00 

8    0
S    1    1.000000
   8.58850000E+03    1.89515000E-03 
S    1    1.000000
   1.29723000E+03    1.43859000E-02 
S    1    1.000000
   2.99296000E+02    7.07320000E-02 
S    1    1.000000
   8.73771000E+01    2.40001000E-01 
S    1    1.000000
   2.56789000E+01    5.94797000E-01 
S    1    1.000000
   3.74004000E+00    2.80802000E-01 
SP   3    1.000000
   4.21175000E+01    1.13889000E-01   3.65114000E-02 
   9.62837000E+00    9.20811000E-01   2.37153000E-01 
   2.85332000E+00   -3.27447000E-03   8.19702000E-01 
SP   1    1.000000
   9.05661000E-01    1.00000000E+00   1.00000000E+00 
SP   1    1.000000
   2.55611000E-01    1.00000000E+00   1.00000000E+00 
SP   1    1.000000
   8.45000000E-02    1.00000000E+00   1.00000000E+00 
SP   1    1.000000
   2.54518072E-02    1.00000000E+00   1.00000000E+00 
D    1    1.000000
   1.29200000E+00    1.00000000E+00 

9    0
S    1    1.000000
   6.29348000E+03    1.96979000E-03 
S    1    1.000000
   9.49044000E+02    1.49613000E-02 
S    1    1.000000
   2.18776000E+02    7.35006000E-02 
S    1    1.000000
   6.36916000E+01    2.48937000E-01 
S    1    1.000000
   1.88282000E+01    6.02460000E-01 
S    1    1.000000
   2.72023000E+00    2.56202000E-01 
SP   3    1.000000
   3.06331000E+01    1.11906000E-01   3.83119000E-02 
   7.02614000E+00    9.21666000E-01   2.37403000E-01 
   2.11205000E+00   -2.56919000E-03   8.17592000E-01 
SP   1    1.000000
   6.84009000E-01    1.00000000E+00   1.00000000E+00 
SP   1    1.000000
   2.00878000E-01    1.00000000E+00   1.00000000E+00 
SP   1    1.000000
   6.39000000E-02    1.00000000E+00   1.00000000E+00 
SP   1    1.000000
   1.92469880E-02    1.00000000E+00   1.00000000E+00 
D    1    1.000000
   9.13000000E-01    1.00000000E+00 

10    0
S    1    1.000000
   6.29348000E+03    1.96979000E-03 
S    1    1.000000
   9.49044000E+02    1.49613000E-02 
S    1    1.000000
   2.18776000E+02    7.35006000E-02 
S    1    1.000000
   6.36916000E+01    2.48937000E-01 
S    1    1.000000
   1.88282000E+01    6.02460000E-01 
S    1    1.000000
   2.72023000E+00    2.56202000E-01 
SP   3    1.000000
   3.06331000E+01    1.11906000E-01   3.83119000E-02 
   7.02614000E+00    9.21666000E-01   2.37403000E-01 
   2.11205000E+00   -2.56919000E-03   8.17592000E-01 
SP   1    1.000000
   6.84009000E-01    1.00000000E+00   1.00000000E+00 
SP   1    1.000000
   2.00878000E-01    1.00000000E+00   1.00000000E+00 
SP   1    1.000000
   6.39000000E-02    1.00000000E+00   1.00000000E+00 
SP   1    1.000000
   1.92469880E-02    1.00000000E+00   1.00000000E+00 
D    1    1.000000
   9.13000000E-01    1.00000000E+00 

11    0
S    1    1.000000
   4.56324000E+03    1.96665000E-03 
S    1    1.000000
   6.82024000E+02    1.52306000E-02 
S    1    1.000000
   1.54973000E+02    7.61269000E-02 
S    1    1.000000
   4.44553000E+01    2.60801000E-01 
S    1    1.000000
   1.30290000E+01    6.16462000E-01 
S    1    1.000000
   1.82773000E+00    2.21006000E-01 
SP   3    1.000000
   2.09642000E+01    1.14660000E-01   4.02487000E-02 
   4.80331000E+00    9.19999000E-01   2.37594000E-01 
   1.45933000E+00   -3.03068000E-03   8.15854000E-01 
SP   1    1.000000
   4.83456000E-01    1.00000000E+00   1.00000000E+00 
SP   1    1.000000
   1.45585000E-01    1.00000000E+00   1.00000000E+00 
SP   1    1.000000
   4.38000000E-02    1.00000000E+00   1.00000000E+00 
SP   1    1.000000
   1.31927711E-02    1.00000000E+00   1.00000000E+00 
D    1    1.000000
   6.26000000E-01    1.00000000E+00 

12    0
S    3    1.000000
   3.38650000E+01    2.54938000E-02 
   5.09479000E+00    1.90373000E-01 
   1.15879000E+00    8.52161000E-01 
S    1    1.000000
   3.25840000E-01    1.00000000E+00 
S    1    1.000000
   1.02741000E-01    1.00000000E+00 
S    1    1.000000
   3.60000000E-02    1.00000000E+00 
P    1    1.000000
   7.50000000E-01    1.00000000E+00 

[MO]
Sym=X
Ene=0.00077
Spin=Alpha
Occup=1
1    1.24446249e-08
2    -1.20415363e-07
3    3.14530631e-07
4    -4.80409868e-06
5    -1.88281539e-05
6    1.09058005e-05
7    -2.39318913e-07
8    -2.34831736e-06
9    5.80450791e-16
10    4.90885348e-05
11    9.47279745e-06
12    1.49260577e-05
13    4.29752219e-16
14    -0.000354980291
15    -3.25456664e-05
16    -0.000210118174
17    -2.57963976e-15
18    0.00196193785
19    0.000441455916
20    -0.000256585493
21    5.45075964e-14
22    0.000709706831
23    0.000255980304
24    8.90903163e-05
25    -1.00812366e-13
26    1.35370978e-05
27    -2.4821216e-16
28    2.6759435e-06
29    8.58391929e-16
30    -8.45207616e-06
31    5.11860031e-07
32    1.92845376e-05
33    -2.34858179e-07
34    0.000153232383
35    3.48636011e-07
36    1.82438506e-06
37    -9.39166208e-16
38    -1.54737204e-06
39    -9.86696282e-06
40    -0.000158758911
41    -0.000301779723
42    2.90782357e-06
43    -3.45426478e-06
44    7.82551147e-16
45    8.92111109e-06
46    -6.57416163e-06
47    2.95529691e-05
48    9.88319175e-05
49    -1.03267971e-05
50    4.76070233e-07
51    -8.95514272e-16
52    -8.87311659e-10
53    2.00709144e-09
54    -5.49266834e-08
55    7.01667396e-08
56    -1.78469219e-06
57    -6.62051709e-06
58    3.55972128e-06
59    -4.70619355e-07
60    5.02911668e-07
61    -1.92437315e-15
62    1.75374492e-05
63    5.89635212e-06
64    1.97294381e-06
65    -7.79806472e-15
66    -3.71799856e-05
67    -0.000228825031
68    0.000130232362
69    -1.21263663e-15
70    -0.000991672981
71    -0.00111272351
72    0.000126046578
73    1.94339664e-14
74    -0.00117648023
75    -0.000259494391
76    -0.000449222103
77    5.90293753e-14
78    -2.14221348e-06
79    -9.07659838e-17
80    5.28791456e-07
81    9.87585648e-16
82    4.13574198e-06
83    -2.02958147e-06
84    -1.54371168e-05
85    -7.57076903e-05
86    -0.000257594754
87    -0.000638068982
88    -0.000304699872
89    -0.000914958977
90    -4.83527247e-06
91    1.15493886e-06
92    -2.47839801e-15
93    -3.14084512e-06
94    6.55565859e-06
95    1.28154722e-06
96    -1.90703976e-15
97    -6.87241851e-05
98    -4.77722276e-05
99    1.20279113e-05
100    -9.69382123e-15
101    -0.000435124451
102    -3.16113893e-05
103    8.41690964e-05
104    3.07287087e-15
105    -0.00251041126
106    -0.000398245232
107    7.10313403e-05
108    -1.82307844e-14
109    1.1544954e-06
110    4.17159682e-16
111    8.2624567e-07
112    -2.87981451e-16
113    -2.88912476e-07
114    -1.02890562e-08
115    -1.23160054e-07
116    -3.6191667e-07
117    -3.10183159e-06
118    -1.17651518e-05
119    -0.000147300139
120    -8.86923522e-07
121    2.94097083e-05
122    2.30835884e-05
123    4.72756077e-16
124    0.000491777688
125    0.000494706927
126    0.000318626933
127    5.16029941e-15
128    -0.000756639417
129    -0.000219162156
130    -0.000144346072
131    1.38282347e-17
132    -0.000805584796
133    -0.00319856675
134    -0.00162689973
135    7.91633759e-14
136    0.000171995456
137    -0.000438819267
138    0.000801979968
139    -5.72039197e-14
140    0.000272184909
141    1.71505737e-16
142    -0.000104485593
143    1.67508971e-15
144    0.00012523127
145    0.0010436141
146    0.00793888263
147    0.0389264566
148    0.132476727
149    0.327876986
150    0.155826061
151    0.471051464
152    -0.00159393565
153    -0.000985253242
154    2.19205872e-15
155    0.00525581417
156    0.000744765815
157    0.000463082002
158    1.47264399e-15
159    -0.000876504255
160    -0.00030147855
161    -0.000176173138
162    1.00417223e-14
163    0.00308293724
164    -0.000177623814
165    -0.000162565877
166    -8.04018494e-15
167    0.00676402557
168    -0.00126342244
169    -0.000408237021
170    3.30960444e-15
171    -0.000114204755
172    -1.52115205e-16
173    9.81824002e-05
174    -3.5337441e-16
175    -5.0419303e-05
176    -3.95416783e-10
177    2.1802068e-08
178    -6.8352788e-08
179    4.5569956e-07
180    -4.77547289e-06
181    -2.06470578e-05
182    1.45360899e-05
183    -1.51151672e-05
184    5.01222624e-07
185    -5.36854801e-16
186    1.98242545e-05
187    4.95437566e-05
188    -5.26584506e-06
189    -2.59183184e-15
190    0.000128265375
191    -1.27738723e-05
192    -7.407494e-05
193    4.83140975e-15
194    -0.000160292611
195    -0.000110487947
196    8.87169707e-05
197    -2.80955355e-14
198    -0.00223330887
199    -0.00297895302
200    5.04670008e-05
201    -2.09442349e-14
202    -1.24055476e-05
203    6.78330898e-16
204    -5.42194302e-06
205    1.14278867e-15
206    2.73715793e-05
207    -1.14745879e-10
208    3.08844825e-09
209    -1.34532405e-08
210    6.65595101e-08
211    -7.32491514e-07
212    -2.89481901e-06
213    1.8804879e-06
214    -5.89626243e-07
215    7.24215514e-07
216    -5.83206991e-16
217    1.13526628e-06
218    4.48189327e-06
219    -3.46199275e-06
220    -5.22573655e-15
221    0.000126485517
222    8.48790006e-05
223    3.69802464e-05
224    3.5149369e-15
225    0.000689471002
226    0.000251268556
227    4.78665208e-05
228    -3.03928495e-14
229    -8.86784067e-05
230    0.000279782352
231    -0.000143411505
232    1.57636163e-14
233    -3.45430514e-06
234    -6.23358119e-16
235    4.09482856e-07
236    5.29288527e-16
237    -1.29553948e-06
238    1.88457286e-09
239    1.20527375e-08
240    8.20800192e-08
241    1.85471225e-07
242    5.09083229e-07
243    -3.74597392e-06
244    2.8225728e-06
245    -7.11624123e-06
246    -1.20701373e-05
247    2.45953557e-15
248    -3.39704617e-06
249    1.80704015e-05
250    6.41029956e-05
251    -1.03419794e-15
252    0.000231286056
253    -0.000177740061
254    1.3787896e-05
255    1.56956096e-14
256    -0.00323038937
257    0.00167103829
258    -2.3475789e-05
259    -6.87102659e-14
260    0.000594605972
261    0.000305020426
262    0.00013647841
263    1.30443357e-13
264    3.8980938e-05
265    1.62319705e-16
266    1.00155479e-06
267    1.58161002e-17
268    -3.91155443e-05
269    6.30672686e-06
270    6.04200485e-05
271    -3.7839272e-05
272    -0.000979365462
273    -1.61714173e-05
274    4.94923235e-06
275    1.12765216e-15
[5D]