[Molden Format]
[Atoms] (Angs)
  C      1    6     -0.00714236     -1.70213747     -0.00000000
  H      2    1     -2.06882847     -1.44022412      0.00000000
  H      3    1     -0.12337987     -2.77567521      0.00000000
  H      4    1      0.04651892      1.98813947     -0.00000000
  C      5    6     -1.21953563      0.40211669      0.00000000
  O      6    8     -2.25921553      1.03043814      0.00000000
  C      7    6      1.28797806      0.34644937     -0.00000000
  O      8    8      2.31273661      1.00537216     -0.00000000
  N      9    7      0.03446295      0.97739857     -0.00000000
  N     10    7     -1.17287765     -0.98229824      0.00000000
  C     11    6      1.20107039     -1.10433419     -0.00000000
  H     12    1      2.11220096     -1.67699125     -0.00000000
[GTO]
1    0
S    1    1.000000
   4.56324000E+03    1.96665000E-03 
S    1    1.000000
   6.82024000E+02    1.52306000E-02 
S    1    1.000000
   1.54973000E+02    7.61269000E-02 
S    1    1.000000
   4.44553000E+01    2.60801000E-01 
S    1    1.000000
   1.30290000E+01    6.16462000E-01 
S    1    1.000000
   1.82773000E+00    2.21006000E-01 
SP   3    1.000000
   2.09642000E+01    1.14660000E-01   4.02487000E-02 
   4.80331000E+00    9.19999000E-01   2.37594000E-01 
   1.45933000E+00   -3.03068000E-03   8.15854000E-01 
SP   1    1.000000
   4.83456000E-01    1.00000000E+00   1.00000000E+00 
SP   1    1.000000
   1.45585000E-01    1.00000000E+00   1.00000000E+00 
SP   1    1.000000
   4.38000000E-02    1.00000000E+00   1.00000000E+00 
SP   1    1.000000
   1.31927711E-02    1.00000000E+00   1.00000000E+00 
D    1    1.000000
   6.26000000E-01    1.00000000E+00 

2    0
S    3    1.000000
   3.38650000E+01    2.54938000E-02 
   5.09479000E+00    1.90373000E-01 
   1.15879000E+00    8.52161000E-01 
S    1    1.000000
   3.25840000E-01    1.00000000E+00 
S    1    1.000000
   1.02741000E-01    1.00000000E+00 
S    1    1.000000
   3.60000000E-02    1.00000000E+00 
P    1    1.000000
   7.50000000E-01    1.00000000E+00 

3    0
S    3    1.000000
   3.38650000E+01    2.54938000E-02 
   5.09479000E+00    1.90373000E-01 
   1.15879000E+00    8.52161000E-01 
S    1    1.000000
   3.25840000E-01    1.00000000E+00 
S    1    1.000000
   1.02741000E-01    1.00000000E+00 
S    1    1.000000
   3.60000000E-02    1.00000000E+00 
P    1    1.000000
   7.50000000E-01    1.00000000E+00 

4    0
S    3    1.000000
   3.38650000E+01    2.54938000E-02 
   5.09479000E+00    1.90373000E-01 
   1.15879000E+00    8.52161000E-01 
S    1    1.000000
   3.25840000E-01    1.00000000E+00 
S    1    1.000000
   1.02741000E-01    1.00000000E+00 
S    1    1.000000
   3.60000000E-02    1.00000000E+00 
P    1    1.000000
   7.50000000E-01    1.00000000E+00 

5    0
S    1    1.000000
   4.56324000E+03    1.96665000E-03 
S    1    1.000000
   6.82024000E+02    1.52306000E-02 
S    1    1.000000
   1.54973000E+02    7.61269000E-02 
S    1    1.000000
   4.44553000E+01    2.60801000E-01 
S    1    1.000000
   1.30290000E+01    6.16462000E-01 
S    1    1.000000
   1.82773000E+00    2.21006000E-01 
SP   3    1.000000
   2.09642000E+01    1.14660000E-01   4.02487000E-02 
   4.80331000E+00    9.19999000E-01   2.37594000E-01 
   1.45933000E+00   -3.03068000E-03   8.15854000E-01 
SP   1    1.000000
   4.83456000E-01    1.00000000E+00   1.00000000E+00 
SP   1    1.000000
   1.45585000E-01    1.00000000E+00   1.00000000E+00 
SP   1    1.000000
   4.38000000E-02    1.00000000E+00   1.00000000E+00 
SP   1    1.000000
   1.31927711E-02    1.00000000E+00   1.00000000E+00 
D    1    1.000000
   6.26000000E-01    1.00000000E+00 

6    0
S    1    1.000000
   8.58850000E+03    1.89515000E-03 
S    1    1.000000
   1.29723000E+03    1.43859000E-02 
S    1    1.000000
   2.99296000E+02    7.07320000E-02 
S    1    1.000000
   8.73771000E+01    2.40001000E-01 
S    1    1.000000
   2.56789000E+01    5.94797000E-01 
S    1    1.000000
   3.74004000E+00    2.80802000E-01 
SP   3    1.000000
   4.21175000E+01    1.13889000E-01   3.65114000E-02 
   9.62837000E+00    9.20811000E-01   2.37153000E-01 
   2.85332000E+00   -3.27447000E-03   8.19702000E-01 
SP   1    1.000000
   9.05661000E-01    1.00000000E+00   1.00000000E+00 
SP   1    1.000000
   2.55611000E-01    1.00000000E+00   1.00000000E+00 
SP   1    1.000000
   8.45000000E-02    1.00000000E+00   1.00000000E+00 
SP   1    1.000000
   2.54518072E-02    1.00000000E+00   1.00000000E+00 
D    1    1.000000
   1.29200000E+00    1.00000000E+00 

7    0
S    1    1.000000
   4.56324000E+03    1.96665000E-03 
S    1    1.000000
   6.82024000E+02    1.52306000E-02 
S    1    1.000000
   1.54973000E+02    7.61269000E-02 
S    1    1.000000
   4.44553000E+01    2.60801000E-01 
S    1    1.000000
   1.30290000E+01    6.16462000E-01 
S    1    1.000000
   1.82773000E+00    2.21006000E-01 
SP   3    1.000000
   2.09642000E+01    1.14660000E-01   4.02487000E-02 
   4.80331000E+00    9.19999000E-01   2.37594000E-01 
   1.45933000E+00   -3.03068000E-03   8.15854000E-01 
SP   1    1.000000
   4.83456000E-01    1.00000000E+00   1.00000000E+00 
SP   1    1.000000
   1.45585000E-01    1.00000000E+00   1.00000000E+00 
SP   1    1.000000
   4.38000000E-02    1.00000000E+00   1.00000000E+00 
SP   1    1.000000
   1.31927711E-02    1.00000000E+00   1.00000000E+00 
D    1    1.000000
   6.26000000E-01    1.00000000E+00 

8    0
S    1    1.000000
   8.58850000E+03    1.89515000E-03 
S    1    1.000000
   1.29723000E+03    1.43859000E-02 
S    1    1.000000
   2.99296000E+02    7.07320000E-02 
S    1    1.000000
   8.73771000E+01    2.40001000E-01 
S    1    1.000000
   2.56789000E+01    5.94797000E-01 
S    1    1.000000
   3.74004000E+00    2.80802000E-01 
SP   3    1.000000
   4.21175000E+01    1.13889000E-01   3.65114000E-02 
   9.62837000E+00    9.20811000E-01   2.37153000E-01 
   2.85332000E+00   -3.27447000E-03   8.19702000E-01 
SP   1    1.000000
   9.05661000E-01    1.00000000E+00   1.00000000E+00 
SP   1    1.000000
   2.55611000E-01    1.00000000E+00   1.00000000E+00 
SP   1    1.000000
   8.45000000E-02    1.00000000E+00   1.00000000E+00 
SP   1    1.000000
   2.54518072E-02    1.00000000E+00   1.00000000E+00 
D    1    1.000000
   1.29200000E+00    1.00000000E+00 

9    0
S    1    1.000000
   6.29348000E+03    1.96979000E-03 
S    1    1.000000
   9.49044000E+02    1.49613000E-02 
S    1    1.000000
   2.18776000E+02    7.35006000E-02 
S    1    1.000000
   6.36916000E+01    2.48937000E-01 
S    1    1.000000
   1.88282000E+01    6.02460000E-01 
S    1    1.000000
   2.72023000E+00    2.56202000E-01 
SP   3    1.000000
   3.06331000E+01    1.11906000E-01   3.83119000E-02 
   7.02614000E+00    9.21666000E-01   2.37403000E-01 
   2.11205000E+00   -2.56919000E-03   8.17592000E-01 
SP   1    1.000000
   6.84009000E-01    1.00000000E+00   1.00000000E+00 
SP   1    1.000000
   2.00878000E-01    1.00000000E+00   1.00000000E+00 
SP   1    1.000000
   6.39000000E-02    1.00000000E+00   1.00000000E+00 
SP   1    1.000000
   1.92469880E-02    1.00000000E+00   1.00000000E+00 
D    1    1.000000
   9.13000000E-01    1.00000000E+00 

10    0
S    1    1.000000
   6.29348000E+03    1.96979000E-03 
S    1    1.000000
   9.49044000E+02    1.49613000E-02 
S    1    1.000000
   2.18776000E+02    7.35006000E-02 
S    1    1.000000
   6.36916000E+01    2.48937000E-01 
S    1    1.000000
   1.88282000E+01    6.02460000E-01 
S    1    1.000000
   2.72023000E+00    2.56202000E-01 
SP   3    1.000000
   3.06331000E+01    1.11906000E-01   3.83119000E-02 
   7.02614000E+00    9.21666000E-01   2.37403000E-01 
   2.11205000E+00   -2.56919000E-03   8.17592000E-01 
SP   1    1.000000
   6.84009000E-01    1.00000000E+00   1.00000000E+00 
SP   1    1.000000
   2.00878000E-01    1.00000000E+00   1.00000000E+00 
SP   1    1.000000
   6.39000000E-02    1.00000000E+00   1.00000000E+00 
SP   1    1.000000
   1.92469880E-02    1.00000000E+00   1.00000000E+00 
D    1    1.000000
   9.13000000E-01    1.00000000E+00 

11    0
S    1    1.000000
   4.56324000E+03    1.96665000E-03 
S    1    1.000000
   6.82024000E+02    1.52306000E-02 
S    1    1.000000
   1.54973000E+02    7.61269000E-02 
S    1    1.000000
   4.44553000E+01    2.60801000E-01 
S    1    1.000000
   1.30290000E+01    6.16462000E-01 
S    1    1.000000
   1.82773000E+00    2.21006000E-01 
SP   3    1.000000
   2.09642000E+01    1.14660000E-01   4.02487000E-02 
   4.80331000E+00    9.19999000E-01   2.37594000E-01 
   1.45933000E+00   -3.03068000E-03   8.15854000E-01 
SP   1    1.000000
   4.83456000E-01    1.00000000E+00   1.00000000E+00 
SP   1    1.000000
   1.45585000E-01    1.00000000E+00   1.00000000E+00 
SP   1    1.000000
   4.38000000E-02    1.00000000E+00   1.00000000E+00 
SP   1    1.000000
   1.31927711E-02    1.00000000E+00   1.00000000E+00 
D    1    1.000000
   6.26000000E-01    1.00000000E+00 

12    0
S    3    1.000000
   3.38650000E+01    2.54938000E-02 
   5.09479000E+00    1.90373000E-01 
   1.15879000E+00    8.52161000E-01 
S    1    1.000000
   3.25840000E-01    1.00000000E+00 
S    1    1.000000
   1.02741000E-01    1.00000000E+00 
S    1    1.000000
   3.60000000E-02    1.00000000E+00 
P    1    1.000000
   7.50000000E-01    1.00000000E+00 

[MO]
Sym=X
Ene=0.005683
Spin=Alpha
Occup=1
1    4.04219137e-07
2    2.04993239e-06
3    6.94751472e-06
4    1.79055505e-05
5    1.60848278e-05
6    2.01930423e-05
7    1.02043309e-06
8    -8.44751762e-07
9    1.65022963e-15
10    -2.70705039e-05
11    5.3579377e-05
12    -2.68634534e-05
13    1.4028213e-15
14    -8.27758882e-05
15    4.10021207e-06
16    -1.19229309e-06
17    3.11405204e-15
18    0.00321738902
19    0.000150765694
20    0.000880870698
21    -2.06392632e-14
22    0.000547496549
23    0.000387475832
24    -0.000171345912
25    -4.94834107e-14
26    3.33284471e-05
27    3.71291768e-16
28    5.41261201e-06
29    2.64675902e-16
30    -7.30740975e-06
31    -2.76879862e-05
32    1.42054603e-05
33    1.46817313e-05
34    7.64570023e-07
35    -1.19843424e-05
36    6.3682577e-06
37    8.13073817e-17
38    -2.93802501e-06
39    9.75830614e-07
40    2.19181165e-05
41    0.000496766161
42    2.81921644e-06
43    -3.43518011e-06
44    1.2193881e-15
45    -4.20632001e-05
46    -5.90560702e-06
47    4.75096901e-05
48    -7.92839086e-05
49    -1.4564698e-05
50    1.4969344e-05
51    -5.48561982e-16
52    5.13576473e-07
53    4.01334404e-06
54    1.98228487e-05
55    6.97192983e-05
56    0.000170079348
57    0.000206101259
58    0.000215054307
59    2.02035537e-05
60    -1.76035109e-05
61    -1.94638578e-15
62    -0.000518537067
63    0.000405243516
64    -0.000248271544
65    -2.49586165e-17
66    0.000754759289
67    -0.000462871578
68    0.000326675293
69    -3.73875388e-15
70    0.00187090935
71    -0.0028292341
72    0.00155931014
73    -3.47919069e-14
74    -0.00151791867
75    -0.000171338299
76    -0.000459364606
77    1.60878114e-14
78    0.000217610324
79    -1.70698778e-16
80    9.9689173e-05
81    9.66125558e-16
82    -0.000125977145
83    -0.000921140089
84    -0.00700719874
85    -0.0343583204
86    -0.116929868
87    -0.289402926
88    -0.137453615
89    -0.415804661
90    -0.00147008137
91    0.000880804564
92    -1.3783814e-15
93    -0.00455090275
94    0.000691076966
95    -0.00041341861
96    -1.95356208e-16
97    0.000628363037
98    -0.000342461181
99    0.000189877667
100    -6.87947354e-15
101    -0.00311837469
102    -0.000244483176
103    0.000177266715
104    7.51621716e-15
105    -0.00793969884
106    -0.00145536303
107    0.000666298921
108    -1.29308202e-14
109    -9.45328116e-05
110    6.58396365e-16
111    -5.5563884e-05
112    -1.720393e-16
113    4.20757678e-05
114    2.11294852e-06
115    1.63281705e-05
116    8.16489502e-05
117    0.000279217447
118    0.000660365352
119    0.000189411979
120    0.000886082694
121    1.67533044e-05
122    5.12221739e-06
123    5.38081746e-16
124    0.000163771569
125    0.000266335377
126    0.000118261552
127    -1.96122407e-15
128    -0.000402397858
129    -0.000288349959
130    -0.000188966503
131    5.37791015e-15
132    0.00127456664
133    -0.00241394561
134    -0.00104071899
135    -3.53606642e-14
136    0.000390349635
137    -0.000341043881
138    0.000570515616
139    -6.93202037e-14
140    0.000134324544
141    -1.81675414e-16
142    -4.4214815e-05
143    3.18527328e-16
144    3.08258979e-05
145    0.000451037198
146    0.00343108091
147    0.016823551
148    0.0572546824
149    0.14170575
150    0.0673517301
151    0.203578518
152    -0.000693519807
153    -0.000425305972
154    -3.66969437e-16
155    0.00225921794
156    0.000331785809
157    0.000201579001
158    -1.38234297e-16
159    -0.000307939464
160    -0.000181356952
161    -9.55043316e-05
162    -1.70425871e-15
163    0.00175461609
164    -0.000116074651
165    -0.000139361408
166    6.62660835e-17
167    0.00514204581
168    -0.00089946137
169    -0.000257400222
170    1.21416287e-14
171    -4.80114921e-05
172    3.60337994e-16
173    4.20440413e-05
174    3.1481832e-16
175    -2.4182012e-05
176    -0.000179479415
177    -0.00136657776
178    -0.00669575223
179    -0.0227284245
180    -0.0549481399
181    -0.0235496966
182    -0.076480771
183    9.99917481e-07
184    4.0133325e-05
185    -1.87102348e-15
186    -0.000726331845
187    5.79047174e-05
188    -1.79753714e-05
189    3.49454354e-15
190    8.92753793e-05
191    1.48360673e-05
192    -1.05080309e-05
193    -1.11183425e-14
194    -0.00050857442
195    -1.7531784e-05
196    -5.1956738e-05
197    2.31683735e-14
198    0.000165461732
199    -0.00342938594
200    0.000133380954
201    2.81872412e-14
202    -9.26867637e-06
203    4.2348467e-16
204    2.1242598e-06
205    9.78383582e-16
206    -1.47037655e-05
207    -9.49581026e-05
208    -0.000723044238
209    -0.00354246849
210    -0.0120253405
211    -0.0290676189
212    -0.0124835442
213    -0.0404559879
214    -4.38774183e-05
215    -8.08191216e-06
216    -1.21247936e-15
217    -0.000465899536
218    4.73795526e-05
219    -4.29385313e-05
220    2.85598556e-15
221    0.000187957736
222    4.52630474e-05
223    4.2525519e-05
224    -8.23619553e-15
225    9.91726988e-06
226    0.000144769898
227    3.83461606e-05
228    2.20905774e-14
229    0.00165057571
230    -0.00021617961
231    0.000605300355
232    1.52720029e-14
233    7.86979992e-06
234    -5.25947521e-16
235    -2.39792091e-05
236    5.1210816e-16
237    2.07298414e-05
238    2.35706011e-07
239    1.81360597e-06
240    9.12815181e-06
241    3.1017114e-05
242    7.58589613e-05
243    3.62876449e-05
244    9.32356569e-05
245    -5.61113835e-06
246    -2.30178633e-06
247    1.05351251e-15
248    -2.22225349e-05
249    2.66318405e-05
250    1.80022819e-05
251    -1.89926759e-17
252    -3.38152468e-05
253    -1.19175731e-05
254    -2.56922491e-05
255    1.40386594e-15
256    -0.00386905135
257    0.00126815373
258    -0.000322810687
259    1.76427532e-14
260    0.000285256069
261    0.000224435974
262    0.000351339557
263    7.37658335e-14
264    1.15006892e-05
265    -4.47158953e-16
266    3.40191664e-08
267    -6.50775598e-16
268    -1.57588447e-05
269    5.27367261e-08
270    1.39394013e-05
271    -3.16968313e-05
272    -0.000418686281
273    -3.28472394e-06
274    -2.25161743e-07
275    5.27912881e-16
[5D]