[Molden Format]
[Atoms] (Angs)
  C      1    6     -0.00714236     -1.70213747     -0.00000000
  H      2    1     -2.06882847     -1.44022412      0.00000000
  H      3    1     -0.12337987     -2.77567521      0.00000000
  H      4    1      0.04651892      1.98813947     -0.00000000
  C      5    6     -1.21953563      0.40211669      0.00000000
  O      6    8     -2.25921553      1.03043814      0.00000000
  C      7    6      1.28797806      0.34644937     -0.00000000
  O      8    8      2.31273661      1.00537216     -0.00000000
  N      9    7      0.03446295      0.97739857     -0.00000000
  N     10    7     -1.17287765     -0.98229824      0.00000000
  C     11    6      1.20107039     -1.10433419     -0.00000000
  H     12    1      2.11220096     -1.67699125     -0.00000000
[GTO]
1    0
S    1    1.000000
   4.56324000E+03    1.96665000E-03 
S    1    1.000000
   6.82024000E+02    1.52306000E-02 
S    1    1.000000
   1.54973000E+02    7.61269000E-02 
S    1    1.000000
   4.44553000E+01    2.60801000E-01 
S    1    1.000000
   1.30290000E+01    6.16462000E-01 
S    1    1.000000
   1.82773000E+00    2.21006000E-01 
SP   3    1.000000
   2.09642000E+01    1.14660000E-01   4.02487000E-02 
   4.80331000E+00    9.19999000E-01   2.37594000E-01 
   1.45933000E+00   -3.03068000E-03   8.15854000E-01 
SP   1    1.000000
   4.83456000E-01    1.00000000E+00   1.00000000E+00 
SP   1    1.000000
   1.45585000E-01    1.00000000E+00   1.00000000E+00 
SP   1    1.000000
   4.38000000E-02    1.00000000E+00   1.00000000E+00 
SP   1    1.000000
   1.31927711E-02    1.00000000E+00   1.00000000E+00 
D    1    1.000000
   6.26000000E-01    1.00000000E+00 

2    0
S    3    1.000000
   3.38650000E+01    2.54938000E-02 
   5.09479000E+00    1.90373000E-01 
   1.15879000E+00    8.52161000E-01 
S    1    1.000000
   3.25840000E-01    1.00000000E+00 
S    1    1.000000
   1.02741000E-01    1.00000000E+00 
S    1    1.000000
   3.60000000E-02    1.00000000E+00 
P    1    1.000000
   7.50000000E-01    1.00000000E+00 

3    0
S    3    1.000000
   3.38650000E+01    2.54938000E-02 
   5.09479000E+00    1.90373000E-01 
   1.15879000E+00    8.52161000E-01 
S    1    1.000000
   3.25840000E-01    1.00000000E+00 
S    1    1.000000
   1.02741000E-01    1.00000000E+00 
S    1    1.000000
   3.60000000E-02    1.00000000E+00 
P    1    1.000000
   7.50000000E-01    1.00000000E+00 

4    0
S    3    1.000000
   3.38650000E+01    2.54938000E-02 
   5.09479000E+00    1.90373000E-01 
   1.15879000E+00    8.52161000E-01 
S    1    1.000000
   3.25840000E-01    1.00000000E+00 
S    1    1.000000
   1.02741000E-01    1.00000000E+00 
S    1    1.000000
   3.60000000E-02    1.00000000E+00 
P    1    1.000000
   7.50000000E-01    1.00000000E+00 

5    0
S    1    1.000000
   4.56324000E+03    1.96665000E-03 
S    1    1.000000
   6.82024000E+02    1.52306000E-02 
S    1    1.000000
   1.54973000E+02    7.61269000E-02 
S    1    1.000000
   4.44553000E+01    2.60801000E-01 
S    1    1.000000
   1.30290000E+01    6.16462000E-01 
S    1    1.000000
   1.82773000E+00    2.21006000E-01 
SP   3    1.000000
   2.09642000E+01    1.14660000E-01   4.02487000E-02 
   4.80331000E+00    9.19999000E-01   2.37594000E-01 
   1.45933000E+00   -3.03068000E-03   8.15854000E-01 
SP   1    1.000000
   4.83456000E-01    1.00000000E+00   1.00000000E+00 
SP   1    1.000000
   1.45585000E-01    1.00000000E+00   1.00000000E+00 
SP   1    1.000000
   4.38000000E-02    1.00000000E+00   1.00000000E+00 
SP   1    1.000000
   1.31927711E-02    1.00000000E+00   1.00000000E+00 
D    1    1.000000
   6.26000000E-01    1.00000000E+00 

6    0
S    1    1.000000
   8.58850000E+03    1.89515000E-03 
S    1    1.000000
   1.29723000E+03    1.43859000E-02 
S    1    1.000000
   2.99296000E+02    7.07320000E-02 
S    1    1.000000
   8.73771000E+01    2.40001000E-01 
S    1    1.000000
   2.56789000E+01    5.94797000E-01 
S    1    1.000000
   3.74004000E+00    2.80802000E-01 
SP   3    1.000000
   4.21175000E+01    1.13889000E-01   3.65114000E-02 
   9.62837000E+00    9.20811000E-01   2.37153000E-01 
   2.85332000E+00   -3.27447000E-03   8.19702000E-01 
SP   1    1.000000
   9.05661000E-01    1.00000000E+00   1.00000000E+00 
SP   1    1.000000
   2.55611000E-01    1.00000000E+00   1.00000000E+00 
SP   1    1.000000
   8.45000000E-02    1.00000000E+00   1.00000000E+00 
SP   1    1.000000
   2.54518072E-02    1.00000000E+00   1.00000000E+00 
D    1    1.000000
   1.29200000E+00    1.00000000E+00 

7    0
S    1    1.000000
   4.56324000E+03    1.96665000E-03 
S    1    1.000000
   6.82024000E+02    1.52306000E-02 
S    1    1.000000
   1.54973000E+02    7.61269000E-02 
S    1    1.000000
   4.44553000E+01    2.60801000E-01 
S    1    1.000000
   1.30290000E+01    6.16462000E-01 
S    1    1.000000
   1.82773000E+00    2.21006000E-01 
SP   3    1.000000
   2.09642000E+01    1.14660000E-01   4.02487000E-02 
   4.80331000E+00    9.19999000E-01   2.37594000E-01 
   1.45933000E+00   -3.03068000E-03   8.15854000E-01 
SP   1    1.000000
   4.83456000E-01    1.00000000E+00   1.00000000E+00 
SP   1    1.000000
   1.45585000E-01    1.00000000E+00   1.00000000E+00 
SP   1    1.000000
   4.38000000E-02    1.00000000E+00   1.00000000E+00 
SP   1    1.000000
   1.31927711E-02    1.00000000E+00   1.00000000E+00 
D    1    1.000000
   6.26000000E-01    1.00000000E+00 

8    0
S    1    1.000000
   8.58850000E+03    1.89515000E-03 
S    1    1.000000
   1.29723000E+03    1.43859000E-02 
S    1    1.000000
   2.99296000E+02    7.07320000E-02 
S    1    1.000000
   8.73771000E+01    2.40001000E-01 
S    1    1.000000
   2.56789000E+01    5.94797000E-01 
S    1    1.000000
   3.74004000E+00    2.80802000E-01 
SP   3    1.000000
   4.21175000E+01    1.13889000E-01   3.65114000E-02 
   9.62837000E+00    9.20811000E-01   2.37153000E-01 
   2.85332000E+00   -3.27447000E-03   8.19702000E-01 
SP   1    1.000000
   9.05661000E-01    1.00000000E+00   1.00000000E+00 
SP   1    1.000000
   2.55611000E-01    1.00000000E+00   1.00000000E+00 
SP   1    1.000000
   8.45000000E-02    1.00000000E+00   1.00000000E+00 
SP   1    1.000000
   2.54518072E-02    1.00000000E+00   1.00000000E+00 
D    1    1.000000
   1.29200000E+00    1.00000000E+00 

9    0
S    1    1.000000
   6.29348000E+03    1.96979000E-03 
S    1    1.000000
   9.49044000E+02    1.49613000E-02 
S    1    1.000000
   2.18776000E+02    7.35006000E-02 
S    1    1.000000
   6.36916000E+01    2.48937000E-01 
S    1    1.000000
   1.88282000E+01    6.02460000E-01 
S    1    1.000000
   2.72023000E+00    2.56202000E-01 
SP   3    1.000000
   3.06331000E+01    1.11906000E-01   3.83119000E-02 
   7.02614000E+00    9.21666000E-01   2.37403000E-01 
   2.11205000E+00   -2.56919000E-03   8.17592000E-01 
SP   1    1.000000
   6.84009000E-01    1.00000000E+00   1.00000000E+00 
SP   1    1.000000
   2.00878000E-01    1.00000000E+00   1.00000000E+00 
SP   1    1.000000
   6.39000000E-02    1.00000000E+00   1.00000000E+00 
SP   1    1.000000
   1.92469880E-02    1.00000000E+00   1.00000000E+00 
D    1    1.000000
   9.13000000E-01    1.00000000E+00 

10    0
S    1    1.000000
   6.29348000E+03    1.96979000E-03 
S    1    1.000000
   9.49044000E+02    1.49613000E-02 
S    1    1.000000
   2.18776000E+02    7.35006000E-02 
S    1    1.000000
   6.36916000E+01    2.48937000E-01 
S    1    1.000000
   1.88282000E+01    6.02460000E-01 
S    1    1.000000
   2.72023000E+00    2.56202000E-01 
SP   3    1.000000
   3.06331000E+01    1.11906000E-01   3.83119000E-02 
   7.02614000E+00    9.21666000E-01   2.37403000E-01 
   2.11205000E+00   -2.56919000E-03   8.17592000E-01 
SP   1    1.000000
   6.84009000E-01    1.00000000E+00   1.00000000E+00 
SP   1    1.000000
   2.00878000E-01    1.00000000E+00   1.00000000E+00 
SP   1    1.000000
   6.39000000E-02    1.00000000E+00   1.00000000E+00 
SP   1    1.000000
   1.92469880E-02    1.00000000E+00   1.00000000E+00 
D    1    1.000000
   9.13000000E-01    1.00000000E+00 

11    0
S    1    1.000000
   4.56324000E+03    1.96665000E-03 
S    1    1.000000
   6.82024000E+02    1.52306000E-02 
S    1    1.000000
   1.54973000E+02    7.61269000E-02 
S    1    1.000000
   4.44553000E+01    2.60801000E-01 
S    1    1.000000
   1.30290000E+01    6.16462000E-01 
S    1    1.000000
   1.82773000E+00    2.21006000E-01 
SP   3    1.000000
   2.09642000E+01    1.14660000E-01   4.02487000E-02 
   4.80331000E+00    9.19999000E-01   2.37594000E-01 
   1.45933000E+00   -3.03068000E-03   8.15854000E-01 
SP   1    1.000000
   4.83456000E-01    1.00000000E+00   1.00000000E+00 
SP   1    1.000000
   1.45585000E-01    1.00000000E+00   1.00000000E+00 
SP   1    1.000000
   4.38000000E-02    1.00000000E+00   1.00000000E+00 
SP   1    1.000000
   1.31927711E-02    1.00000000E+00   1.00000000E+00 
D    1    1.000000
   6.26000000E-01    1.00000000E+00 

12    0
S    3    1.000000
   3.38650000E+01    2.54938000E-02 
   5.09479000E+00    1.90373000E-01 
   1.15879000E+00    8.52161000E-01 
S    1    1.000000
   3.25840000E-01    1.00000000E+00 
S    1    1.000000
   1.02741000E-01    1.00000000E+00 
S    1    1.000000
   3.60000000E-02    1.00000000E+00 
P    1    1.000000
   7.50000000E-01    1.00000000E+00 

[MO]
Sym=X
Ene=0.920894
Spin=Alpha
Occup=1
1    1.94035262e-09
2    -4.81148788e-08
3    6.25688405e-08
4    -1.63312086e-06
5    -6.50418137e-06
6    3.30650881e-06
7    1.55479353e-06
8    -4.38807031e-07
9    -6.82610934e-17
10    1.77097205e-05
11    -1.61755757e-05
12    4.92240106e-06
13    9.85375373e-16
14    -0.000119841802
15    -3.08470653e-05
16    -0.000126844166
17    -2.37259722e-15
18    -0.00266107883
19    4.47094808e-05
20    -0.00113203597
21    4.80600213e-14
22    -0.000294956537
23    -0.000270193828
24    0.00022949817
25    1.03003605e-14
26    -7.41945418e-06
27    -4.73709386e-16
28    1.70015473e-06
29    1.03242924e-15
30    -4.59298907e-06
31    8.84939484e-06
32    -1.94205859e-05
33    -5.10669623e-06
34    0.00010113714
35    3.86612261e-06
36    -1.16746308e-05
37    -1.02361946e-15
38    1.09174058e-06
39    -1.88641539e-05
40    -9.72457538e-05
41    -0.000728918208
42    -5.9623043e-07
43    -3.65150547e-06
44    -1.88185745e-16
45    7.28932451e-06
46    -5.5057116e-06
47    -7.25541093e-05
48    0.00013319444
49    1.20038515e-05
50    1.38353648e-06
51    -2.38538757e-16
52    -1.06208616e-08
53    -1.28357729e-07
54    -3.71671195e-07
55    -3.22552397e-06
56    -1.17247802e-05
57    -0.000151316063
58    -2.53734884e-06
59    -3.15672041e-05
60    1.86626788e-05
61    -8.01331716e-16
62    0.000512280208
63    -0.000513802807
64    0.000305735813
65    -7.15466572e-15
66    -0.000839270001
67    0.00041443893
68    -0.000262220667
69    -1.11723426e-15
70    -0.00237471283
71    0.00276955734
72    -0.00176843485
73    4.56996832e-14
74    0.00139688123
75    0.000106607713
76    0.000254252511
77    6.34720222e-15
78    -0.00026788376
79    -2.15386843e-16
80    -0.00010472363
81    2.5911828e-16
82    0.000142193873
83    0.00104368227
84    0.00793938517
85    0.0389291233
86    0.132485351
87    0.327903825
88    0.155742425
89    0.471118083
90    0.00166838554
91    -0.000999343765
92    -1.15554841e-15
93    0.00515548795
94    -0.000788980645
95    0.000473563977
96    -3.30033982e-15
97    -0.000771410205
98    0.000359085391
99    -0.000211652497
100    -1.26190608e-15
101    0.0033381276
102    0.0002569083
103    -0.000160028097
104    -1.21773303e-14
105    0.00792024832
106    0.00146828581
107    -0.000727602595
108    1.95298245e-15
109    0.000109527363
110    -2.85553832e-16
111    6.45308914e-05
112    -4.60227049e-16
113    -5.10536529e-05
114    -7.88400447e-10
115    1.53592573e-09
116    -4.83735548e-08
117    5.58579268e-08
118    -1.56225846e-06
119    -5.98544689e-06
120    3.05056183e-06
121    2.03026585e-06
122    6.41492465e-07
123    6.69125397e-16
124    1.40119456e-05
125    -1.11502323e-05
126    2.1681449e-06
127    5.8255299e-15
128    8.47141272e-05
129    0.000210876656
130    0.000160292928
131    -3.69340952e-15
132    -0.00167999748
133    0.00109224136
134    0.00035145903
135    7.2793832e-14
136    -0.000383196365
137    0.000165888835
138    -0.000261965292
139    4.71363408e-14
140    3.73301988e-06
141    -5.8989453e-16
142    -1.54405123e-06
143    2.07741761e-16
144    5.19695469e-06
145    3.74794311e-07
146    2.85483365e-06
147    1.39711833e-05
148    4.76498664e-05
149    0.000117018504
150    5.2803141e-05
151    0.000171242298
152    9.84361803e-07
153    -6.59917015e-07
154    1.21212276e-15
155    1.2171439e-05
156    -4.82878731e-06
157    4.25596348e-07
158    7.37767522e-16
159    -8.79618682e-05
160    5.48119731e-05
161    2.0116913e-05
162    7.06102848e-15
163    -0.000444753723
164    4.37433874e-05
165    7.46244978e-05
166    -2.76302408e-15
167    -0.00243769427
168    0.000392652177
169    8.02300298e-05
170    -1.06828845e-14
171    -1.53778802e-06
172    -5.49088606e-16
173    1.19996081e-06
174    -5.84689326e-16
175    -5.92344259e-07
176    -1.08018915e-09
177    2.45507209e-08
178    -1.12484476e-07
179    5.32400119e-07
180    -6.36844763e-06
181    -2.64721432e-05
182    1.79943175e-05
183    1.55265588e-05
184    -2.06312308e-06
185    1.7665229e-15
186    3.86551025e-05
187    -5.16669866e-05
188    1.68785298e-06
189    -5.90131805e-15
190    1.88588143e-05
191    -7.04532733e-06
192    -2.50495115e-05
193    1.36777457e-14
194    0.000162629861
195    -3.55464538e-05
196    0.000199743313
197    -4.1577692e-14
198    -0.00154948206
199    0.00244855661
200    -7.66379533e-05
201    -4.2809637e-14
202    3.8627167e-06
203    -2.14645119e-16
204    -3.75656661e-06
205    1.98221628e-16
206    3.17681259e-05
207    -1.09027674e-09
208    2.69039084e-08
209    -1.18360933e-07
210    5.80242255e-07
211    -6.82311562e-06
212    -2.84662755e-05
213    1.93097279e-05
214    8.74701205e-06
215    -1.38299195e-05
216    5.27746158e-16
217    4.33619799e-05
218    -2.35725731e-05
219    4.77518425e-05
220    -6.44159683e-15
221    -1.18214617e-05
222    4.96416692e-06
223    -6.68101923e-06
224    9.40494246e-15
225    0.000158546678
226    -5.14682566e-05
227    -2.29196735e-05
228    -4.16431682e-14
229    -0.00199853144
230    0.000402911656
231    -0.000796987954
232    -1.45771548e-14
233    -1.99397827e-05
234    -3.89079094e-16
235    -3.5394507e-06
236    2.40976442e-16
237    -2.40644189e-05
238    3.9770965e-11
239    3.91213146e-10
240    1.41938397e-09
241    4.22781072e-09
242    -7.45172984e-08
243    -1.09218364e-06
244    3.25641247e-07
245    1.25112307e-06
246    -1.54264243e-08
247    1.64619278e-15
248    3.6464766e-07
249    -1.2750724e-05
250    6.61532801e-07
251    2.86493895e-15
252    0.000222737084
253    -0.000120342404
254    6.99035218e-05
255    8.56554677e-15
256    0.00269847771
257    -0.000618424393
258    0.000348284657
259    -4.9935599e-14
260    -0.000133391144
261    -0.000100477192
262    -0.00031468253
263    -2.59583637e-14
264    5.36816447e-06
265    6.56919075e-16
266    1.20212647e-06
267    2.06158724e-16
268    5.24418055e-07
269    1.02417603e-06
270    1.81583698e-05
271    4.3934911e-05
272    6.64915618e-06
273    -3.11680184e-06
274    2.02627568e-06
275    8.72998494e-16
[5D]