[Molden Format]
[Atoms] (Angs)
  C      1    6     -0.00714236     -1.70213747     -0.00000000
  H      2    1     -2.06882847     -1.44022412      0.00000000
  H      3    1     -0.12337987     -2.77567521      0.00000000
  H      4    1      0.04651892      1.98813947     -0.00000000
  C      5    6     -1.21953563      0.40211669      0.00000000
  O      6    8     -2.25921553      1.03043814      0.00000000
  C      7    6      1.28797806      0.34644937     -0.00000000
  O      8    8      2.31273661      1.00537216     -0.00000000
  N      9    7      0.03446295      0.97739857     -0.00000000
  N     10    7     -1.17287765     -0.98229824      0.00000000
  C     11    6      1.20107039     -1.10433419     -0.00000000
  H     12    1      2.11220096     -1.67699125     -0.00000000
[GTO]
1    0
S    1    1.000000
   4.56324000E+03    1.96665000E-03 
S    1    1.000000
   6.82024000E+02    1.52306000E-02 
S    1    1.000000
   1.54973000E+02    7.61269000E-02 
S    1    1.000000
   4.44553000E+01    2.60801000E-01 
S    1    1.000000
   1.30290000E+01    6.16462000E-01 
S    1    1.000000
   1.82773000E+00    2.21006000E-01 
SP   3    1.000000
   2.09642000E+01    1.14660000E-01   4.02487000E-02 
   4.80331000E+00    9.19999000E-01   2.37594000E-01 
   1.45933000E+00   -3.03068000E-03   8.15854000E-01 
SP   1    1.000000
   4.83456000E-01    1.00000000E+00   1.00000000E+00 
SP   1    1.000000
   1.45585000E-01    1.00000000E+00   1.00000000E+00 
SP   1    1.000000
   4.38000000E-02    1.00000000E+00   1.00000000E+00 
SP   1    1.000000
   1.31927711E-02    1.00000000E+00   1.00000000E+00 
D    1    1.000000
   6.26000000E-01    1.00000000E+00 

2    0
S    3    1.000000
   3.38650000E+01    2.54938000E-02 
   5.09479000E+00    1.90373000E-01 
   1.15879000E+00    8.52161000E-01 
S    1    1.000000
   3.25840000E-01    1.00000000E+00 
S    1    1.000000
   1.02741000E-01    1.00000000E+00 
S    1    1.000000
   3.60000000E-02    1.00000000E+00 
P    1    1.000000
   7.50000000E-01    1.00000000E+00 

3    0
S    3    1.000000
   3.38650000E+01    2.54938000E-02 
   5.09479000E+00    1.90373000E-01 
   1.15879000E+00    8.52161000E-01 
S    1    1.000000
   3.25840000E-01    1.00000000E+00 
S    1    1.000000
   1.02741000E-01    1.00000000E+00 
S    1    1.000000
   3.60000000E-02    1.00000000E+00 
P    1    1.000000
   7.50000000E-01    1.00000000E+00 

4    0
S    3    1.000000
   3.38650000E+01    2.54938000E-02 
   5.09479000E+00    1.90373000E-01 
   1.15879000E+00    8.52161000E-01 
S    1    1.000000
   3.25840000E-01    1.00000000E+00 
S    1    1.000000
   1.02741000E-01    1.00000000E+00 
S    1    1.000000
   3.60000000E-02    1.00000000E+00 
P    1    1.000000
   7.50000000E-01    1.00000000E+00 

5    0
S    1    1.000000
   4.56324000E+03    1.96665000E-03 
S    1    1.000000
   6.82024000E+02    1.52306000E-02 
S    1    1.000000
   1.54973000E+02    7.61269000E-02 
S    1    1.000000
   4.44553000E+01    2.60801000E-01 
S    1    1.000000
   1.30290000E+01    6.16462000E-01 
S    1    1.000000
   1.82773000E+00    2.21006000E-01 
SP   3    1.000000
   2.09642000E+01    1.14660000E-01   4.02487000E-02 
   4.80331000E+00    9.19999000E-01   2.37594000E-01 
   1.45933000E+00   -3.03068000E-03   8.15854000E-01 
SP   1    1.000000
   4.83456000E-01    1.00000000E+00   1.00000000E+00 
SP   1    1.000000
   1.45585000E-01    1.00000000E+00   1.00000000E+00 
SP   1    1.000000
   4.38000000E-02    1.00000000E+00   1.00000000E+00 
SP   1    1.000000
   1.31927711E-02    1.00000000E+00   1.00000000E+00 
D    1    1.000000
   6.26000000E-01    1.00000000E+00 

6    0
S    1    1.000000
   8.58850000E+03    1.89515000E-03 
S    1    1.000000
   1.29723000E+03    1.43859000E-02 
S    1    1.000000
   2.99296000E+02    7.07320000E-02 
S    1    1.000000
   8.73771000E+01    2.40001000E-01 
S    1    1.000000
   2.56789000E+01    5.94797000E-01 
S    1    1.000000
   3.74004000E+00    2.80802000E-01 
SP   3    1.000000
   4.21175000E+01    1.13889000E-01   3.65114000E-02 
   9.62837000E+00    9.20811000E-01   2.37153000E-01 
   2.85332000E+00   -3.27447000E-03   8.19702000E-01 
SP   1    1.000000
   9.05661000E-01    1.00000000E+00   1.00000000E+00 
SP   1    1.000000
   2.55611000E-01    1.00000000E+00   1.00000000E+00 
SP   1    1.000000
   8.45000000E-02    1.00000000E+00   1.00000000E+00 
SP   1    1.000000
   2.54518072E-02    1.00000000E+00   1.00000000E+00 
D    1    1.000000
   1.29200000E+00    1.00000000E+00 

7    0
S    1    1.000000
   4.56324000E+03    1.96665000E-03 
S    1    1.000000
   6.82024000E+02    1.52306000E-02 
S    1    1.000000
   1.54973000E+02    7.61269000E-02 
S    1    1.000000
   4.44553000E+01    2.60801000E-01 
S    1    1.000000
   1.30290000E+01    6.16462000E-01 
S    1    1.000000
   1.82773000E+00    2.21006000E-01 
SP   3    1.000000
   2.09642000E+01    1.14660000E-01   4.02487000E-02 
   4.80331000E+00    9.19999000E-01   2.37594000E-01 
   1.45933000E+00   -3.03068000E-03   8.15854000E-01 
SP   1    1.000000
   4.83456000E-01    1.00000000E+00   1.00000000E+00 
SP   1    1.000000
   1.45585000E-01    1.00000000E+00   1.00000000E+00 
SP   1    1.000000
   4.38000000E-02    1.00000000E+00   1.00000000E+00 
SP   1    1.000000
   1.31927711E-02    1.00000000E+00   1.00000000E+00 
D    1    1.000000
   6.26000000E-01    1.00000000E+00 

8    0
S    1    1.000000
   8.58850000E+03    1.89515000E-03 
S    1    1.000000
   1.29723000E+03    1.43859000E-02 
S    1    1.000000
   2.99296000E+02    7.07320000E-02 
S    1    1.000000
   8.73771000E+01    2.40001000E-01 
S    1    1.000000
   2.56789000E+01    5.94797000E-01 
S    1    1.000000
   3.74004000E+00    2.80802000E-01 
SP   3    1.000000
   4.21175000E+01    1.13889000E-01   3.65114000E-02 
   9.62837000E+00    9.20811000E-01   2.37153000E-01 
   2.85332000E+00   -3.27447000E-03   8.19702000E-01 
SP   1    1.000000
   9.05661000E-01    1.00000000E+00   1.00000000E+00 
SP   1    1.000000
   2.55611000E-01    1.00000000E+00   1.00000000E+00 
SP   1    1.000000
   8.45000000E-02    1.00000000E+00   1.00000000E+00 
SP   1    1.000000
   2.54518072E-02    1.00000000E+00   1.00000000E+00 
D    1    1.000000
   1.29200000E+00    1.00000000E+00 

9    0
S    1    1.000000
   6.29348000E+03    1.96979000E-03 
S    1    1.000000
   9.49044000E+02    1.49613000E-02 
S    1    1.000000
   2.18776000E+02    7.35006000E-02 
S    1    1.000000
   6.36916000E+01    2.48937000E-01 
S    1    1.000000
   1.88282000E+01    6.02460000E-01 
S    1    1.000000
   2.72023000E+00    2.56202000E-01 
SP   3    1.000000
   3.06331000E+01    1.11906000E-01   3.83119000E-02 
   7.02614000E+00    9.21666000E-01   2.37403000E-01 
   2.11205000E+00   -2.56919000E-03   8.17592000E-01 
SP   1    1.000000
   6.84009000E-01    1.00000000E+00   1.00000000E+00 
SP   1    1.000000
   2.00878000E-01    1.00000000E+00   1.00000000E+00 
SP   1    1.000000
   6.39000000E-02    1.00000000E+00   1.00000000E+00 
SP   1    1.000000
   1.92469880E-02    1.00000000E+00   1.00000000E+00 
D    1    1.000000
   9.13000000E-01    1.00000000E+00 

10    0
S    1    1.000000
   6.29348000E+03    1.96979000E-03 
S    1    1.000000
   9.49044000E+02    1.49613000E-02 
S    1    1.000000
   2.18776000E+02    7.35006000E-02 
S    1    1.000000
   6.36916000E+01    2.48937000E-01 
S    1    1.000000
   1.88282000E+01    6.02460000E-01 
S    1    1.000000
   2.72023000E+00    2.56202000E-01 
SP   3    1.000000
   3.06331000E+01    1.11906000E-01   3.83119000E-02 
   7.02614000E+00    9.21666000E-01   2.37403000E-01 
   2.11205000E+00   -2.56919000E-03   8.17592000E-01 
SP   1    1.000000
   6.84009000E-01    1.00000000E+00   1.00000000E+00 
SP   1    1.000000
   2.00878000E-01    1.00000000E+00   1.00000000E+00 
SP   1    1.000000
   6.39000000E-02    1.00000000E+00   1.00000000E+00 
SP   1    1.000000
   1.92469880E-02    1.00000000E+00   1.00000000E+00 
D    1    1.000000
   9.13000000E-01    1.00000000E+00 

11    0
S    1    1.000000
   4.56324000E+03    1.96665000E-03 
S    1    1.000000
   6.82024000E+02    1.52306000E-02 
S    1    1.000000
   1.54973000E+02    7.61269000E-02 
S    1    1.000000
   4.44553000E+01    2.60801000E-01 
S    1    1.000000
   1.30290000E+01    6.16462000E-01 
S    1    1.000000
   1.82773000E+00    2.21006000E-01 
SP   3    1.000000
   2.09642000E+01    1.14660000E-01   4.02487000E-02 
   4.80331000E+00    9.19999000E-01   2.37594000E-01 
   1.45933000E+00   -3.03068000E-03   8.15854000E-01 
SP   1    1.000000
   4.83456000E-01    1.00000000E+00   1.00000000E+00 
SP   1    1.000000
   1.45585000E-01    1.00000000E+00   1.00000000E+00 
SP   1    1.000000
   4.38000000E-02    1.00000000E+00   1.00000000E+00 
SP   1    1.000000
   1.31927711E-02    1.00000000E+00   1.00000000E+00 
D    1    1.000000
   6.26000000E-01    1.00000000E+00 

12    0
S    3    1.000000
   3.38650000E+01    2.54938000E-02 
   5.09479000E+00    1.90373000E-01 
   1.15879000E+00    8.52161000E-01 
S    1    1.000000
   3.25840000E-01    1.00000000E+00 
S    1    1.000000
   1.02741000E-01    1.00000000E+00 
S    1    1.000000
   3.60000000E-02    1.00000000E+00 
P    1    1.000000
   7.50000000E-01    1.00000000E+00 

[MO]
Sym=X
Ene=0.962366
Spin=Alpha
Occup=1
1    1.63005681e-09
2    -1.2447717e-08
3    1.20491802e-07
4    -3.14630231e-07
5    4.80669408e-06
6    1.88384901e-05
7    -1.09110567e-05
8    2.36854048e-07
9    2.34901606e-06
10    -5.80343291e-16
11    -4.91166757e-05
12    -9.44716256e-06
13    -1.4933881e-05
14    -4.31315098e-16
15    0.000355170749
16    3.25946162e-05
17    0.000210319553
18    2.58340481e-15
19    -0.00195772111
20    -0.000441527359
21    0.000258380688
22    -5.45838653e-14
23    -0.000709240061
24    -0.000255552227
25    -8.94543035e-05
26    1.00796161e-13
27    -1.3525351e-05
28    2.4896355e-16
29    -2.6786425e-06
30    -8.60029951e-16
31    8.45936908e-06
32    -5.25891617e-07
33    -1.925377e-05
34    2.42955272e-07
35    -0.000153392931
36    -3.54766286e-07
37    -1.80587693e-06
38    9.40790364e-16
39    1.54564301e-06
40    9.89688482e-06
41    0.000158913297
42    0.000302935821
43    -2.90688189e-06
44    3.46005868e-06
45    -7.82253757e-16
46    -8.93267971e-06
47    6.58289934e-06
48    -2.94379698e-05
49    -9.90432249e-05
50    1.03077776e-05
51    -4.78264464e-07
52    8.95893607e-16
53    9.04152424e-10
54    -1.80357948e-09
55    5.55160466e-08
56    -6.50526766e-08
57    1.80328437e-06
58    6.86044092e-06
59    -3.55570272e-06
60    5.2067056e-07
61    -5.32502457e-07
62    1.9256461e-15
63    -1.83497047e-05
64    -5.08171197e-06
65    -2.45769829e-06
66    7.80941843e-15
67    3.85107165e-05
68    0.000228168215
69    -0.000129816768
70    1.21440956e-15
71    0.000995439395
72    0.0011083337
73    -0.000123242838
74    -1.95064489e-14
75    0.00117426692
76    0.000259325688
77    0.000448819544
78    -5.90395131e-14
79    2.56695276e-06
80    9.11075992e-17
81    -3.62750112e-07
82    -9.87997728e-16
83    -4.36119922e-06
84    3.74798944e-07
85    2.84903684e-06
86    1.39846592e-05
87    4.75361472e-05
88    0.000118169836
89    5.77666356e-05
90    0.00016799029
91    2.19001037e-06
92    4.29544923e-07
93    2.48023328e-15
94    -5.03330966e-06
95    -5.30471772e-06
96    -2.0323967e-06
97    1.91227493e-15
98    6.99473622e-05
99    4.72029485e-05
100    -1.16923459e-05
101    9.6958342e-15
102    0.000429832311
103    3.12040943e-05
104    -8.39154735e-05
105    -3.05356726e-15
106    0.00249785665
107    0.000395917728
108    -6.98777969e-05
109    1.82277108e-14
110    -1.3281553e-06
111    -4.16707454e-16
112    -9.28562096e-07
113    2.88711515e-16
114    3.69859719e-07
115    1.02903192e-08
116    1.23157773e-07
117    3.61993822e-07
118    3.10174692e-06
119    1.17676436e-05
120    0.000147309814
121    8.82087892e-07
122    -2.94129643e-05
123    -2.30846345e-05
124    -4.73817586e-16
125    -0.000491800522
126    -0.000494689869
127    -0.000318630771
128    -5.16954242e-15
129    0.000756506051
130    0.000218828081
131    0.000144092105
132    -7.9722563e-18
133    0.000808249488
134    0.003196839
135    0.00162634453
136    -7.92788919e-14
137    -0.000171388104
138    0.000438556798
139    -0.000801565623
140    5.71292557e-14
141    -0.000272191169
142    -1.70570659e-16
143    0.000104488172
144    -1.6754212e-15
145    -0.000125239667
146    -0.00104361601
147    -0.00793889713
148    -0.0389265277
149    -0.132476969
150    -0.327877583
151    -0.15582634
152    -0.471052328
153    0.00159393609
154    0.000985255527
155    -2.19398332e-15
156    -0.00525584007
157    -0.000744759095
158    -0.000463083259
159    -1.47381559e-15
160    0.000876644823
161    0.000301392023
162    0.000176141463
163    -1.00529304e-14
164    -0.00308223594
165    0.000177554681
166    0.000162447762
167    8.04457589e-15
168    -0.00676016904
169    0.00126280147
170    0.000408110327
171    -3.29267061e-15
172    0.000114207337
173    1.5298599e-16
174    -9.81844262e-05
175    3.54301894e-16
176    5.04203055e-05
177    3.97129948e-10
178    -2.18410212e-08
179    6.85312209e-08
180    -4.56544266e-07
181    4.78557623e-06
182    2.0689056e-05
183    -1.45646386e-05
184    1.50905685e-05
185    -4.97952119e-07
186    5.34054608e-16
187    -1.98855681e-05
188    -4.94618995e-05
189    5.26317554e-06
190    2.60119179e-15
191    -0.000128295437
192    1.27850589e-05
193    7.41147497e-05
194    -4.85310224e-15
195    0.000160034959
196    0.000110544446
197    -8.90337804e-05
198    2.81614933e-14
199    0.00223576842
200    0.00297507451
201    -5.03455528e-05
202    2.1012137e-14
203    1.23994387e-05
204    -6.77991425e-16
205    5.42790597e-06
206    -1.14310439e-15
207    -2.74219829e-05
208    1.16474685e-10
209    -3.13110897e-09
210    1.36409217e-08
211    -6.74795828e-08
212    7.4331066e-07
213    2.93995666e-06
214    -1.91110634e-06
215    5.75758371e-07
216    -7.02288731e-07
217    5.82370969e-16
218    -1.20401924e-06
219    -4.44452398e-06
220    3.38628533e-06
221    5.23595644e-15
222    -0.000126466933
223    -8.4886978e-05
224    -3.69697e-05
225    -3.52985309e-15
226    -0.000689723248
227    -0.000251187267
228    -4.78302412e-05
229    3.0458914e-14
230    9.18472411e-05
231    -0.000280421531
232    0.000144675331
233    -1.57405236e-14
234    3.48592452e-06
235    6.23975798e-16
236    -4.0387148e-07
237    -5.29671266e-16
238    1.33369586e-06
239    -1.88463829e-09
240    -1.20533729e-08
241    -8.20823728e-08
242    -1.85478162e-07
243    -5.0896572e-07
244    3.74771032e-06
245    -2.82309266e-06
246    7.11426648e-06
247    1.2070177e-05
248    -2.46214874e-15
249    3.39647229e-06
250    -1.80502077e-05
251    -6.4104125e-05
252    1.02965681e-15
253    -0.000231639502
254    0.000177931091
255    -1.38987472e-05
256    -1.57092102e-14
257    0.00322611493
258    -0.00167005986
259    2.29236042e-05
260    6.87895264e-14
261    -0.000594395224
262    -0.000304861501
263    -0.000135979644
264    -1.30402363e-13
265    -3.89894984e-05
266    -1.63361471e-16
267    -1.00346205e-06
268    -1.61429901e-17
269    3.91147619e-05
270    -6.30835865e-06
271    -6.0448915e-05
272    3.77696596e-05
273    0.00097935615
274    1.61763794e-05
275    -4.95245128e-06
276    -1.12903774e-15
[5D]