[Molden Format]
[Atoms] (Angs)
  C      1    6     -0.00714236     -1.70213747     -0.00000000
  H      2    1     -2.06882847     -1.44022412      0.00000000
  H      3    1     -0.12337987     -2.77567521      0.00000000
  H      4    1      0.04651892      1.98813947     -0.00000000
  C      5    6     -1.21953563      0.40211669      0.00000000
  O      6    8     -2.25921553      1.03043814      0.00000000
  C      7    6      1.28797806      0.34644937     -0.00000000
  O      8    8      2.31273661      1.00537216     -0.00000000
  N      9    7      0.03446295      0.97739857     -0.00000000
  N     10    7     -1.17287765     -0.98229824      0.00000000
  C     11    6      1.20107039     -1.10433419     -0.00000000
  H     12    1      2.11220096     -1.67699125     -0.00000000
[GTO]
1    0
S    1    1.000000
   4.56324000E+03    1.96665000E-03 
S    1    1.000000
   6.82024000E+02    1.52306000E-02 
S    1    1.000000
   1.54973000E+02    7.61269000E-02 
S    1    1.000000
   4.44553000E+01    2.60801000E-01 
S    1    1.000000
   1.30290000E+01    6.16462000E-01 
S    1    1.000000
   1.82773000E+00    2.21006000E-01 
SP   3    1.000000
   2.09642000E+01    1.14660000E-01   4.02487000E-02 
   4.80331000E+00    9.19999000E-01   2.37594000E-01 
   1.45933000E+00   -3.03068000E-03   8.15854000E-01 
SP   1    1.000000
   4.83456000E-01    1.00000000E+00   1.00000000E+00 
SP   1    1.000000
   1.45585000E-01    1.00000000E+00   1.00000000E+00 
SP   1    1.000000
   4.38000000E-02    1.00000000E+00   1.00000000E+00 
SP   1    1.000000
   1.31927711E-02    1.00000000E+00   1.00000000E+00 
D    1    1.000000
   6.26000000E-01    1.00000000E+00 

2    0
S    3    1.000000
   3.38650000E+01    2.54938000E-02 
   5.09479000E+00    1.90373000E-01 
   1.15879000E+00    8.52161000E-01 
S    1    1.000000
   3.25840000E-01    1.00000000E+00 
S    1    1.000000
   1.02741000E-01    1.00000000E+00 
S    1    1.000000
   3.60000000E-02    1.00000000E+00 
P    1    1.000000
   7.50000000E-01    1.00000000E+00 

3    0
S    3    1.000000
   3.38650000E+01    2.54938000E-02 
   5.09479000E+00    1.90373000E-01 
   1.15879000E+00    8.52161000E-01 
S    1    1.000000
   3.25840000E-01    1.00000000E+00 
S    1    1.000000
   1.02741000E-01    1.00000000E+00 
S    1    1.000000
   3.60000000E-02    1.00000000E+00 
P    1    1.000000
   7.50000000E-01    1.00000000E+00 

4    0
S    3    1.000000
   3.38650000E+01    2.54938000E-02 
   5.09479000E+00    1.90373000E-01 
   1.15879000E+00    8.52161000E-01 
S    1    1.000000
   3.25840000E-01    1.00000000E+00 
S    1    1.000000
   1.02741000E-01    1.00000000E+00 
S    1    1.000000
   3.60000000E-02    1.00000000E+00 
P    1    1.000000
   7.50000000E-01    1.00000000E+00 

5    0
S    1    1.000000
   4.56324000E+03    1.96665000E-03 
S    1    1.000000
   6.82024000E+02    1.52306000E-02 
S    1    1.000000
   1.54973000E+02    7.61269000E-02 
S    1    1.000000
   4.44553000E+01    2.60801000E-01 
S    1    1.000000
   1.30290000E+01    6.16462000E-01 
S    1    1.000000
   1.82773000E+00    2.21006000E-01 
SP   3    1.000000
   2.09642000E+01    1.14660000E-01   4.02487000E-02 
   4.80331000E+00    9.19999000E-01   2.37594000E-01 
   1.45933000E+00   -3.03068000E-03   8.15854000E-01 
SP   1    1.000000
   4.83456000E-01    1.00000000E+00   1.00000000E+00 
SP   1    1.000000
   1.45585000E-01    1.00000000E+00   1.00000000E+00 
SP   1    1.000000
   4.38000000E-02    1.00000000E+00   1.00000000E+00 
SP   1    1.000000
   1.31927711E-02    1.00000000E+00   1.00000000E+00 
D    1    1.000000
   6.26000000E-01    1.00000000E+00 

6    0
S    1    1.000000
   8.58850000E+03    1.89515000E-03 
S    1    1.000000
   1.29723000E+03    1.43859000E-02 
S    1    1.000000
   2.99296000E+02    7.07320000E-02 
S    1    1.000000
   8.73771000E+01    2.40001000E-01 
S    1    1.000000
   2.56789000E+01    5.94797000E-01 
S    1    1.000000
   3.74004000E+00    2.80802000E-01 
SP   3    1.000000
   4.21175000E+01    1.13889000E-01   3.65114000E-02 
   9.62837000E+00    9.20811000E-01   2.37153000E-01 
   2.85332000E+00   -3.27447000E-03   8.19702000E-01 
SP   1    1.000000
   9.05661000E-01    1.00000000E+00   1.00000000E+00 
SP   1    1.000000
   2.55611000E-01    1.00000000E+00   1.00000000E+00 
SP   1    1.000000
   8.45000000E-02    1.00000000E+00   1.00000000E+00 
SP   1    1.000000
   2.54518072E-02    1.00000000E+00   1.00000000E+00 
D    1    1.000000
   1.29200000E+00    1.00000000E+00 

7    0
S    1    1.000000
   4.56324000E+03    1.96665000E-03 
S    1    1.000000
   6.82024000E+02    1.52306000E-02 
S    1    1.000000
   1.54973000E+02    7.61269000E-02 
S    1    1.000000
   4.44553000E+01    2.60801000E-01 
S    1    1.000000
   1.30290000E+01    6.16462000E-01 
S    1    1.000000
   1.82773000E+00    2.21006000E-01 
SP   3    1.000000
   2.09642000E+01    1.14660000E-01   4.02487000E-02 
   4.80331000E+00    9.19999000E-01   2.37594000E-01 
   1.45933000E+00   -3.03068000E-03   8.15854000E-01 
SP   1    1.000000
   4.83456000E-01    1.00000000E+00   1.00000000E+00 
SP   1    1.000000
   1.45585000E-01    1.00000000E+00   1.00000000E+00 
SP   1    1.000000
   4.38000000E-02    1.00000000E+00   1.00000000E+00 
SP   1    1.000000
   1.31927711E-02    1.00000000E+00   1.00000000E+00 
D    1    1.000000
   6.26000000E-01    1.00000000E+00 

8    0
S    1    1.000000
   8.58850000E+03    1.89515000E-03 
S    1    1.000000
   1.29723000E+03    1.43859000E-02 
S    1    1.000000
   2.99296000E+02    7.07320000E-02 
S    1    1.000000
   8.73771000E+01    2.40001000E-01 
S    1    1.000000
   2.56789000E+01    5.94797000E-01 
S    1    1.000000
   3.74004000E+00    2.80802000E-01 
SP   3    1.000000
   4.21175000E+01    1.13889000E-01   3.65114000E-02 
   9.62837000E+00    9.20811000E-01   2.37153000E-01 
   2.85332000E+00   -3.27447000E-03   8.19702000E-01 
SP   1    1.000000
   9.05661000E-01    1.00000000E+00   1.00000000E+00 
SP   1    1.000000
   2.55611000E-01    1.00000000E+00   1.00000000E+00 
SP   1    1.000000
   8.45000000E-02    1.00000000E+00   1.00000000E+00 
SP   1    1.000000
   2.54518072E-02    1.00000000E+00   1.00000000E+00 
D    1    1.000000
   1.29200000E+00    1.00000000E+00 

9    0
S    1    1.000000
   6.29348000E+03    1.96979000E-03 
S    1    1.000000
   9.49044000E+02    1.49613000E-02 
S    1    1.000000
   2.18776000E+02    7.35006000E-02 
S    1    1.000000
   6.36916000E+01    2.48937000E-01 
S    1    1.000000
   1.88282000E+01    6.02460000E-01 
S    1    1.000000
   2.72023000E+00    2.56202000E-01 
SP   3    1.000000
   3.06331000E+01    1.11906000E-01   3.83119000E-02 
   7.02614000E+00    9.21666000E-01   2.37403000E-01 
   2.11205000E+00   -2.56919000E-03   8.17592000E-01 
SP   1    1.000000
   6.84009000E-01    1.00000000E+00   1.00000000E+00 
SP   1    1.000000
   2.00878000E-01    1.00000000E+00   1.00000000E+00 
SP   1    1.000000
   6.39000000E-02    1.00000000E+00   1.00000000E+00 
SP   1    1.000000
   1.92469880E-02    1.00000000E+00   1.00000000E+00 
D    1    1.000000
   9.13000000E-01    1.00000000E+00 

10    0
S    1    1.000000
   6.29348000E+03    1.96979000E-03 
S    1    1.000000
   9.49044000E+02    1.49613000E-02 
S    1    1.000000
   2.18776000E+02    7.35006000E-02 
S    1    1.000000
   6.36916000E+01    2.48937000E-01 
S    1    1.000000
   1.88282000E+01    6.02460000E-01 
S    1    1.000000
   2.72023000E+00    2.56202000E-01 
SP   3    1.000000
   3.06331000E+01    1.11906000E-01   3.83119000E-02 
   7.02614000E+00    9.21666000E-01   2.37403000E-01 
   2.11205000E+00   -2.56919000E-03   8.17592000E-01 
SP   1    1.000000
   6.84009000E-01    1.00000000E+00   1.00000000E+00 
SP   1    1.000000
   2.00878000E-01    1.00000000E+00   1.00000000E+00 
SP   1    1.000000
   6.39000000E-02    1.00000000E+00   1.00000000E+00 
SP   1    1.000000
   1.92469880E-02    1.00000000E+00   1.00000000E+00 
D    1    1.000000
   9.13000000E-01    1.00000000E+00 

11    0
S    1    1.000000
   4.56324000E+03    1.96665000E-03 
S    1    1.000000
   6.82024000E+02    1.52306000E-02 
S    1    1.000000
   1.54973000E+02    7.61269000E-02 
S    1    1.000000
   4.44553000E+01    2.60801000E-01 
S    1    1.000000
   1.30290000E+01    6.16462000E-01 
S    1    1.000000
   1.82773000E+00    2.21006000E-01 
SP   3    1.000000
   2.09642000E+01    1.14660000E-01   4.02487000E-02 
   4.80331000E+00    9.19999000E-01   2.37594000E-01 
   1.45933000E+00   -3.03068000E-03   8.15854000E-01 
SP   1    1.000000
   4.83456000E-01    1.00000000E+00   1.00000000E+00 
SP   1    1.000000
   1.45585000E-01    1.00000000E+00   1.00000000E+00 
SP   1    1.000000
   4.38000000E-02    1.00000000E+00   1.00000000E+00 
SP   1    1.000000
   1.31927711E-02    1.00000000E+00   1.00000000E+00 
D    1    1.000000
   6.26000000E-01    1.00000000E+00 

12    0
S    3    1.000000
   3.38650000E+01    2.54938000E-02 
   5.09479000E+00    1.90373000E-01 
   1.15879000E+00    8.52161000E-01 
S    1    1.000000
   3.25840000E-01    1.00000000E+00 
S    1    1.000000
   1.02741000E-01    1.00000000E+00 
S    1    1.000000
   3.60000000E-02    1.00000000E+00 
P    1    1.000000
   7.50000000E-01    1.00000000E+00 

[MO]
Sym=X
Ene=0.014363
Spin=Alpha
Occup=1
1    -1.63056074e-09
2    1.2448988e-08
3    -1.2052336e-07
4    3.14671235e-07
5    -4.80776507e-06
6    -1.88427556e-05
7    1.09132249e-05
8    -2.35833384e-07
9    -2.34930359e-06
10    5.80298357e-16
11    4.91282903e-05
12    9.43654239e-06
13    1.4937109e-05
14    4.31961835e-16
15    -0.00035524934
16    -3.26148581e-05
17    -0.000210402772
18    -2.5849617e-15
19    0.00195597387
20    0.000441556612
21    -0.000259123735
22    5.46154016e-14
23    0.00070904629
24    0.000255374808
25    8.96049337e-05
26    -1.00789378e-13
27    1.35204778e-05
28    -2.49274454e-16
29    2.67975796e-06
30    8.60707483e-16
31    -8.46238224e-06
32    5.31700513e-07
33    1.92410176e-05
34    -2.46307409e-07
35    0.000153459288
36    3.57304049e-07
37    1.79821296e-06
38    -9.41462096e-16
39    -1.54492602e-06
40    -9.90926569e-06
41    -0.000158977097
42    -0.000303414239
43    2.90648988e-06
44    -3.46245489e-06
45    7.82130057e-16
46    8.93746272e-06
47    -6.58651204e-06
48    2.93903367e-05
49    9.91306364e-05
50    -1.02998957e-05
51    4.79172556e-07
52    -8.96049998e-16
53    -9.11124082e-10
54    1.71932121e-09
55    -5.57600108e-08
56    6.29353315e-08
57    -1.81098048e-06
58    -6.95976786e-06
59    3.55403637e-06
60    -5.41392112e-07
61    5.44753087e-07
62    -1.92617171e-15
63    1.86859769e-05
64    4.74443522e-06
65    2.65839196e-06
66    -7.81411328e-15
67    -3.90616303e-05
68    -0.000227896115
69    0.00012964461
70    -1.21514268e-15
71    -0.000996998014
72    -0.00110651544
73    0.000122081957
74    1.95364433e-14
75    -0.00117334971
76    -0.000259255651
77    -0.000448652548
78    5.90436669e-14
79    -2.74279918e-06
80    -9.1248966e-17
81    2.94006287e-07
82    9.88167608e-16
83    4.45453862e-06
84    3.10305631e-07
85    2.36261547e-06
86    1.15695936e-05
87    3.943124e-05
88    9.70761429e-05
89    4.44673981e-05
90    0.000141265855
91    -1.09483135e-06
92    -1.0855442e-06
93    -2.48099128e-15
94    8.41752624e-06
95    4.7868059e-06
96    2.34325793e-06
97    -1.91444096e-15
98    -7.0453724e-05
99    -4.69672238e-05
100    1.15534083e-05
101    -9.69666046e-15
102    -0.000427640971
103    -3.10354452e-05
104    8.38104081e-05
105    3.04557304e-15
106    -0.00249265703
107    -0.000394953815
108    6.94001616e-05
109    -1.82264248e-14
110    1.40005208e-06
111    4.16519918e-16
112    9.70921918e-07
113    -2.89013559e-16
114    -4.03372796e-07
115    -1.02908345e-08
116    -1.23156738e-07
117    -3.62025498e-07
118    -3.10170958e-06
119    -1.17686666e-05
120    -0.000147313712
121    -8.80085221e-07
122    2.94142907e-05
123    2.30850506e-05
124    4.74256718e-16
125    0.000491809614
126    0.000494682443
127    0.000318632126
128    5.17336536e-15
129    -0.000756450279
130    -0.000218689608
131    -0.000143986853
132    5.54778926e-18
133    -0.000809352115
134    -0.00319612133
135    -0.00162611347
136    7.93266588e-14
137    0.000171136526
138    -0.000438447809
139    0.000801393488
140    -5.70983016e-14
141    0.000272193561
142    1.70183398e-16
143    -0.000104489163
144    1.6755572e-15
145    0.000125243051
146    0.00104361603
147    0.0079388973
148    0.0389265285
149    0.132476971
150    0.32787759
151    0.155826341
152    0.471052339
153    -0.0015939351
154    -0.000985255747
155    2.19477852e-15
156    0.00525584693
157    0.000744755765
158    0.000463083439
159    1.47429957e-15
160    -0.000876702375
161    -0.000301355978
162    -0.00017612822
163    1.00575633e-14
164    0.00308194333
165    -0.000177525928
166    -0.000162398741
167    -8.04638789e-15
168    0.00675856741
169    -0.00126254345
170    -0.000408057574
171    3.28565733e-15
172    -0.000114208322
173    -1.53346395e-16
174    9.81851927e-05
175    -3.54685626e-16
176    -5.04206835e-05
177    -3.97838931e-10
178    2.18571323e-08
179    -6.86050443e-08
180    4.56893651e-07
181    -4.78975564e-06
182    -2.07064287e-05
183    1.45764475e-05
184    -1.50803731e-05
185    4.96597716e-07
186    -5.32894894e-16
187    1.99109382e-05
188    4.94279731e-05
189    -5.26206645e-06
190    -2.60506503e-15
191    0.000128307789
192    -1.27896809e-05
193    -7.4131177e-05
194    4.86207968e-15
195    -0.000159928169
196    -0.000110567756
197    8.91648787e-05
198    -2.81887801e-14
199    -0.00223678507
200    -0.00297346656
201    5.02952344e-05
202    -2.1040234e-14
203    -1.23969004e-05
204    6.7785038e-16
205    -5.43037072e-06
206    1.14323426e-15
207    2.74428306e-05
208    -1.1719035e-10
209    3.14876883e-09
210    -1.37186145e-08
211    6.78604567e-08
212    -7.47789399e-07
213    -2.95864215e-06
214    1.92378141e-06
215    -5.70016445e-07
216    6.93210204e-07
217    -5.82024415e-16
218    1.23248309e-06
219    4.42904928e-06
220    -3.35493885e-06
221    -5.24018377e-15
222    0.000126459146
223    8.48902184e-05
224    3.69653064e-05
225    3.53602602e-15
226    0.000689827174
227    0.000251153428
228    4.78151858e-05
229    -3.04862433e-14
230    -9.31591175e-05
231    0.000280685954
232    -0.000145198466
233    1.57309514e-14
234    -3.49901285e-06
235    -6.24231066e-16
236    4.01547991e-07
237    5.29829337e-16
238    -1.34949218e-06
239    1.88466399e-09
240    1.20536271e-08
241    8.20832868e-08
242    1.85480897e-07
243    5.08916695e-07
244    -3.74842645e-06
245    2.82330581e-06
246    -7.11344367e-06
247    -1.20701845e-05
248    2.46322882e-15
249    -3.39623219e-06
250    1.80418338e-05
251    6.41045455e-05
252    -1.02777595e-15
253    0.000231785663
254    -0.000178010049
255    1.39446309e-05
256    1.57148295e-14
257    -0.00322434287
258    0.00166965355
259    -2.26949747e-05
260    -6.88222908e-14
261    0.000594307534
262    0.000304795479
263    0.000135773048
264    1.30385295e-13
265    3.89930138e-05
266    1.63792657e-16
267    1.00425094e-06
268    1.62783154e-17
269    -3.91144093e-05
270    6.30902959e-06
271    6.04608216e-05
272    -3.77408113e-05
273    -0.000979351575
274    -1.61784219e-05
275    4.95378032e-06
276    1.12961056e-15
[5D]