[Molden Format]
[Atoms] (Angs)
  C      1    6     -0.00714236     -1.70213747     -0.00000000
  H      2    1     -2.06882847     -1.44022412      0.00000000
  H      3    1     -0.12337987     -2.77567521      0.00000000
  H      4    1      0.04651892      1.98813947     -0.00000000
  C      5    6     -1.21953563      0.40211669      0.00000000
  O      6    8     -2.25921553      1.03043814      0.00000000
  C      7    6      1.28797806      0.34644937     -0.00000000
  O      8    8      2.31273661      1.00537216     -0.00000000
  N      9    7      0.03446295      0.97739857     -0.00000000
  N     10    7     -1.17287765     -0.98229824      0.00000000
  C     11    6      1.20107039     -1.10433419     -0.00000000
  H     12    1      2.11220096     -1.67699125     -0.00000000
[GTO]
1    0
S    1    1.000000
   4.56324000E+03    1.96665000E-03 
S    1    1.000000
   6.82024000E+02    1.52306000E-02 
S    1    1.000000
   1.54973000E+02    7.61269000E-02 
S    1    1.000000
   4.44553000E+01    2.60801000E-01 
S    1    1.000000
   1.30290000E+01    6.16462000E-01 
S    1    1.000000
   1.82773000E+00    2.21006000E-01 
SP   3    1.000000
   2.09642000E+01    1.14660000E-01   4.02487000E-02 
   4.80331000E+00    9.19999000E-01   2.37594000E-01 
   1.45933000E+00   -3.03068000E-03   8.15854000E-01 
SP   1    1.000000
   4.83456000E-01    1.00000000E+00   1.00000000E+00 
SP   1    1.000000
   1.45585000E-01    1.00000000E+00   1.00000000E+00 
SP   1    1.000000
   4.38000000E-02    1.00000000E+00   1.00000000E+00 
SP   1    1.000000
   1.31927711E-02    1.00000000E+00   1.00000000E+00 
D    1    1.000000
   6.26000000E-01    1.00000000E+00 

2    0
S    3    1.000000
   3.38650000E+01    2.54938000E-02 
   5.09479000E+00    1.90373000E-01 
   1.15879000E+00    8.52161000E-01 
S    1    1.000000
   3.25840000E-01    1.00000000E+00 
S    1    1.000000
   1.02741000E-01    1.00000000E+00 
S    1    1.000000
   3.60000000E-02    1.00000000E+00 
P    1    1.000000
   7.50000000E-01    1.00000000E+00 

3    0
S    3    1.000000
   3.38650000E+01    2.54938000E-02 
   5.09479000E+00    1.90373000E-01 
   1.15879000E+00    8.52161000E-01 
S    1    1.000000
   3.25840000E-01    1.00000000E+00 
S    1    1.000000
   1.02741000E-01    1.00000000E+00 
S    1    1.000000
   3.60000000E-02    1.00000000E+00 
P    1    1.000000
   7.50000000E-01    1.00000000E+00 

4    0
S    3    1.000000
   3.38650000E+01    2.54938000E-02 
   5.09479000E+00    1.90373000E-01 
   1.15879000E+00    8.52161000E-01 
S    1    1.000000
   3.25840000E-01    1.00000000E+00 
S    1    1.000000
   1.02741000E-01    1.00000000E+00 
S    1    1.000000
   3.60000000E-02    1.00000000E+00 
P    1    1.000000
   7.50000000E-01    1.00000000E+00 

5    0
S    1    1.000000
   4.56324000E+03    1.96665000E-03 
S    1    1.000000
   6.82024000E+02    1.52306000E-02 
S    1    1.000000
   1.54973000E+02    7.61269000E-02 
S    1    1.000000
   4.44553000E+01    2.60801000E-01 
S    1    1.000000
   1.30290000E+01    6.16462000E-01 
S    1    1.000000
   1.82773000E+00    2.21006000E-01 
SP   3    1.000000
   2.09642000E+01    1.14660000E-01   4.02487000E-02 
   4.80331000E+00    9.19999000E-01   2.37594000E-01 
   1.45933000E+00   -3.03068000E-03   8.15854000E-01 
SP   1    1.000000
   4.83456000E-01    1.00000000E+00   1.00000000E+00 
SP   1    1.000000
   1.45585000E-01    1.00000000E+00   1.00000000E+00 
SP   1    1.000000
   4.38000000E-02    1.00000000E+00   1.00000000E+00 
SP   1    1.000000
   1.31927711E-02    1.00000000E+00   1.00000000E+00 
D    1    1.000000
   6.26000000E-01    1.00000000E+00 

6    0
S    1    1.000000
   8.58850000E+03    1.89515000E-03 
S    1    1.000000
   1.29723000E+03    1.43859000E-02 
S    1    1.000000
   2.99296000E+02    7.07320000E-02 
S    1    1.000000
   8.73771000E+01    2.40001000E-01 
S    1    1.000000
   2.56789000E+01    5.94797000E-01 
S    1    1.000000
   3.74004000E+00    2.80802000E-01 
SP   3    1.000000
   4.21175000E+01    1.13889000E-01   3.65114000E-02 
   9.62837000E+00    9.20811000E-01   2.37153000E-01 
   2.85332000E+00   -3.27447000E-03   8.19702000E-01 
SP   1    1.000000
   9.05661000E-01    1.00000000E+00   1.00000000E+00 
SP   1    1.000000
   2.55611000E-01    1.00000000E+00   1.00000000E+00 
SP   1    1.000000
   8.45000000E-02    1.00000000E+00   1.00000000E+00 
SP   1    1.000000
   2.54518072E-02    1.00000000E+00   1.00000000E+00 
D    1    1.000000
   1.29200000E+00    1.00000000E+00 

7    0
S    1    1.000000
   4.56324000E+03    1.96665000E-03 
S    1    1.000000
   6.82024000E+02    1.52306000E-02 
S    1    1.000000
   1.54973000E+02    7.61269000E-02 
S    1    1.000000
   4.44553000E+01    2.60801000E-01 
S    1    1.000000
   1.30290000E+01    6.16462000E-01 
S    1    1.000000
   1.82773000E+00    2.21006000E-01 
SP   3    1.000000
   2.09642000E+01    1.14660000E-01   4.02487000E-02 
   4.80331000E+00    9.19999000E-01   2.37594000E-01 
   1.45933000E+00   -3.03068000E-03   8.15854000E-01 
SP   1    1.000000
   4.83456000E-01    1.00000000E+00   1.00000000E+00 
SP   1    1.000000
   1.45585000E-01    1.00000000E+00   1.00000000E+00 
SP   1    1.000000
   4.38000000E-02    1.00000000E+00   1.00000000E+00 
SP   1    1.000000
   1.31927711E-02    1.00000000E+00   1.00000000E+00 
D    1    1.000000
   6.26000000E-01    1.00000000E+00 

8    0
S    1    1.000000
   8.58850000E+03    1.89515000E-03 
S    1    1.000000
   1.29723000E+03    1.43859000E-02 
S    1    1.000000
   2.99296000E+02    7.07320000E-02 
S    1    1.000000
   8.73771000E+01    2.40001000E-01 
S    1    1.000000
   2.56789000E+01    5.94797000E-01 
S    1    1.000000
   3.74004000E+00    2.80802000E-01 
SP   3    1.000000
   4.21175000E+01    1.13889000E-01   3.65114000E-02 
   9.62837000E+00    9.20811000E-01   2.37153000E-01 
   2.85332000E+00   -3.27447000E-03   8.19702000E-01 
SP   1    1.000000
   9.05661000E-01    1.00000000E+00   1.00000000E+00 
SP   1    1.000000
   2.55611000E-01    1.00000000E+00   1.00000000E+00 
SP   1    1.000000
   8.45000000E-02    1.00000000E+00   1.00000000E+00 
SP   1    1.000000
   2.54518072E-02    1.00000000E+00   1.00000000E+00 
D    1    1.000000
   1.29200000E+00    1.00000000E+00 

9    0
S    1    1.000000
   6.29348000E+03    1.96979000E-03 
S    1    1.000000
   9.49044000E+02    1.49613000E-02 
S    1    1.000000
   2.18776000E+02    7.35006000E-02 
S    1    1.000000
   6.36916000E+01    2.48937000E-01 
S    1    1.000000
   1.88282000E+01    6.02460000E-01 
S    1    1.000000
   2.72023000E+00    2.56202000E-01 
SP   3    1.000000
   3.06331000E+01    1.11906000E-01   3.83119000E-02 
   7.02614000E+00    9.21666000E-01   2.37403000E-01 
   2.11205000E+00   -2.56919000E-03   8.17592000E-01 
SP   1    1.000000
   6.84009000E-01    1.00000000E+00   1.00000000E+00 
SP   1    1.000000
   2.00878000E-01    1.00000000E+00   1.00000000E+00 
SP   1    1.000000
   6.39000000E-02    1.00000000E+00   1.00000000E+00 
SP   1    1.000000
   1.92469880E-02    1.00000000E+00   1.00000000E+00 
D    1    1.000000
   9.13000000E-01    1.00000000E+00 

10    0
S    1    1.000000
   6.29348000E+03    1.96979000E-03 
S    1    1.000000
   9.49044000E+02    1.49613000E-02 
S    1    1.000000
   2.18776000E+02    7.35006000E-02 
S    1    1.000000
   6.36916000E+01    2.48937000E-01 
S    1    1.000000
   1.88282000E+01    6.02460000E-01 
S    1    1.000000
   2.72023000E+00    2.56202000E-01 
SP   3    1.000000
   3.06331000E+01    1.11906000E-01   3.83119000E-02 
   7.02614000E+00    9.21666000E-01   2.37403000E-01 
   2.11205000E+00   -2.56919000E-03   8.17592000E-01 
SP   1    1.000000
   6.84009000E-01    1.00000000E+00   1.00000000E+00 
SP   1    1.000000
   2.00878000E-01    1.00000000E+00   1.00000000E+00 
SP   1    1.000000
   6.39000000E-02    1.00000000E+00   1.00000000E+00 
SP   1    1.000000
   1.92469880E-02    1.00000000E+00   1.00000000E+00 
D    1    1.000000
   9.13000000E-01    1.00000000E+00 

11    0
S    1    1.000000
   4.56324000E+03    1.96665000E-03 
S    1    1.000000
   6.82024000E+02    1.52306000E-02 
S    1    1.000000
   1.54973000E+02    7.61269000E-02 
S    1    1.000000
   4.44553000E+01    2.60801000E-01 
S    1    1.000000
   1.30290000E+01    6.16462000E-01 
S    1    1.000000
   1.82773000E+00    2.21006000E-01 
SP   3    1.000000
   2.09642000E+01    1.14660000E-01   4.02487000E-02 
   4.80331000E+00    9.19999000E-01   2.37594000E-01 
   1.45933000E+00   -3.03068000E-03   8.15854000E-01 
SP   1    1.000000
   4.83456000E-01    1.00000000E+00   1.00000000E+00 
SP   1    1.000000
   1.45585000E-01    1.00000000E+00   1.00000000E+00 
SP   1    1.000000
   4.38000000E-02    1.00000000E+00   1.00000000E+00 
SP   1    1.000000
   1.31927711E-02    1.00000000E+00   1.00000000E+00 
D    1    1.000000
   6.26000000E-01    1.00000000E+00 

12    0
S    3    1.000000
   3.38650000E+01    2.54938000E-02 
   5.09479000E+00    1.90373000E-01 
   1.15879000E+00    8.52161000E-01 
S    1    1.000000
   3.25840000E-01    1.00000000E+00 
S    1    1.000000
   1.02741000E-01    1.00000000E+00 
S    1    1.000000
   3.60000000E-02    1.00000000E+00 
P    1    1.000000
   7.50000000E-01    1.00000000E+00 

[MO]
Sym=X
Ene=0.96031
Spin=Alpha
Occup=1
1    -7.68173581e-10
2    1.94004266e-09
3    -4.81118785e-08
4    6.2561006e-08
5    -1.63300117e-06
6    -6.50371228e-06
7    3.30623712e-06
8    1.55479942e-06
9    -4.38748539e-07
10    -6.82755442e-17
11    1.77084975e-05
12    -1.6175811e-05
13    4.9220292e-06
14    9.85364633e-16
15    -0.000119832958
16    -3.08462537e-05
17    -0.000126838928
18    -2.37253289e-15
19    -0.00266112758
20    4.46984865e-05
21    -0.00113202954
22    4.80586621e-14
23    -0.000294974197
24    -0.000270200192
25    0.000229495943
26    1.03028704e-14
27    -7.41979096e-06
28    -4.73703186e-16
29    1.70008803e-06
30    1.03240782e-15
31    -4.59277842e-06
32    8.84938174e-06
33    -1.94210653e-05
34    -5.10669018e-06
35    0.000101133321
36    3.86611377e-06
37    -1.16746757e-05
38    -1.02359604e-15
39    1.09177907e-06
40    -1.88639075e-05
41    -9.72417967e-05
42    -0.000728910664
43    -5.96302813e-07
44    -3.65141931e-06
45    -1.88205224e-16
46    7.28910208e-06
47    -5.50554768e-06
48    -7.25548423e-05
49    0.000133191974
50    1.20041082e-05
51    1.38352457e-06
52    -2.38516449e-16
53    -1.06208391e-08
54    -1.28357773e-07
55    -3.71669812e-07
56    -3.22552559e-06
57    -1.17247353e-05
58    -0.000151315892
59    -2.53743738e-06
60    -3.15671911e-05
61    1.86626655e-05
62    -8.01283766e-16
63    0.000512279751
64    -0.000513802934
65    0.000305735751
66    -7.15447126e-15
67    -0.000839269042
68    0.000414444611
69    -0.000262223899
70    -1.11720402e-15
71    -0.00237468804
72    0.00276958494
73    -0.00176843792
74    4.56991975e-14
75    0.00139691047
76    0.000106614171
77    0.000254263687
78    6.3457321e-15
79    -0.000267883696
80    -2.15384574e-16
81    -0.000104723639
82    2.59093678e-16
83    0.000142193765
84    0.00104368228
85    0.00793938524
86    0.0389291237
87    0.132485352
88    0.327903828
89    0.155742426
90    0.471118087
91    0.0016683856
92    -0.000999343754
93    -1.15548666e-15
94    0.00515548782
95    -0.000788980777
96    0.000473563926
97    -3.3002922e-15
98    -0.000771408463
99    0.000359086566
100    -0.000211652788
101    -1.26166465e-15
102    0.0033381383
103    0.000256909077
104    -0.000160030187
105    -1.21774064e-14
106    0.00792031051
107    0.00146829567
108    -0.000727604335
109    1.95343633e-15
110    0.00010952733
111    -2.85564208e-16
112    6.45308682e-05
113    -4.6021986e-16
114    -5.10536437e-05
115    -7.88144211e-10
116    1.53899243e-09
117    -4.83645409e-08
118    5.59351621e-08
119    -1.56196543e-06
120    -5.98177879e-06
121    3.05058379e-06
122    2.02953345e-06
123    6.40917644e-07
124    6.69113598e-16
125    1.39996995e-05
126    -1.11625504e-05
127    2.16021081e-06
128    5.82540117e-15
129    8.47329646e-05
130    0.000210882105
131    0.000160296516
132    -3.69340972e-15
133    -0.00167997735
134    0.00109232096
135    0.000351499527
136    7.27918579e-14
137    -0.000383200632
138    0.000165899756
139    -0.000261985251
140    4.71377634e-14
141    3.72624216e-06
142    -5.89898777e-16
143    -1.54144941e-06
144    2.07700042e-16
145    5.19383615e-06
146    3.48807662e-07
147    2.65715047e-06
148    1.300189e-05
149    4.43511124e-05
150    0.000108854161
151    4.8922974e-05
152    0.00015951282
153    1.02405174e-06
154    -6.35383577e-07
155    1.21206813e-15
156    1.20405655e-05
157    -4.84733225e-06
158    4.14065304e-07
159    7.37730823e-16
160    -8.79400392e-05
161    5.48194779e-05
162    2.0121299e-05
163    7.06077815e-15
164    -0.000444830472
165    4.37478086e-05
166    7.46285429e-05
167    -2.76282376e-15
168    -0.0024378626
169    0.000392683621
170    8.0240192e-05
171    -1.06829665e-14
172    -1.53494419e-06
173    -5.49084796e-16
174    1.19751596e-06
175    -5.84680503e-16
176    -5.91088764e-07
177    -1.08017926e-09
178    2.4550177e-08
179    -1.1248277e-07
180    5.32388751e-07
181    -6.36832847e-06
182    -2.6471628e-05
183    1.79939549e-05
184    1.55269346e-05
185    -2.06313548e-06
186    1.76653619e-15
187    3.86546073e-05
188    -5.16682183e-05
189    1.68798403e-06
190    -5.90125328e-15
191    1.88556197e-05
192    -7.04500898e-06
193    -2.5047666e-05
194    1.36776249e-14
195    0.000162633846
196    -3.55437012e-05
197    0.000199741096
198    -4.15769908e-14
199    -0.00154942639
200    0.00244863069
201    -7.66392069e-05
202    -4.28091138e-14
203    3.86302546e-06
204    -2.14662001e-16
205    -3.75643145e-06
206    1.98193164e-16
207    3.17674431e-05
208    -1.09027384e-09
209    2.69038304e-08
210    -1.18360593e-07
211    5.80240575e-07
212    -6.82309711e-06
213    -2.84662023e-05
214    1.93096803e-05
215    8.74702639e-06
216    -1.3829937e-05
217    5.27760659e-16
218    4.33619499e-05
219    -2.35726838e-05
220    4.77519268e-05
221    -6.44146645e-15
222    -1.18246108e-05
223    4.96205318e-06
224    -6.68193979e-06
225    9.40485456e-15
226    0.000158529503
227    -5.14745113e-05
228    -2.29208645e-05
229    -4.16424097e-14
230    -0.00199852915
231    0.000402904673
232    -0.000796984351
233    -1.45775468e-14
234    -1.99396959e-05
235    -3.89063557e-16
236    -3.53946076e-06
237    2.40963253e-16
238    -2.40643856e-05
239    3.97240364e-11
240    3.9091301e-10
241    1.41734007e-09
242    4.22319221e-09
243    -7.4529972e-08
244    -1.09209032e-06
245    3.2557095e-07
246    1.25130022e-06
247    -1.51258698e-08
248    1.64613148e-15
249    3.64732234e-07
250    -1.27511735e-05
251    6.5993657e-07
252    2.86496459e-15
253    0.000222731316
254    -0.000120337974
255    6.99031757e-05
256    8.5651556e-15
257    0.00269855804
258    -0.000618465978
259    0.000348285228
260    -4.99338861e-14
261    -0.000133405945
262    -0.000100484783
263    -0.000314685916
264    -2.59616108e-14
265    5.36719361e-06
266    6.56915007e-16
267    1.20210149e-06
268    2.06158322e-16
269    5.25392035e-07
270    1.02401895e-06
271    1.81568646e-05
272    4.39358515e-05
273    6.67354272e-06
274    -3.11639904e-06
275    2.02615236e-06
276    8.7297038e-16
[5D]