[Molden Format]
[Atoms] (Angs)
  C      1    6     -0.00714236     -1.70213747     -0.00000000
  H      2    1     -2.06882847     -1.44022412      0.00000000
  H      3    1     -0.12337987     -2.77567521      0.00000000
  H      4    1      0.04651892      1.98813947     -0.00000000
  C      5    6     -1.21953563      0.40211669      0.00000000
  O      6    8     -2.25921553      1.03043814      0.00000000
  C      7    6      1.28797806      0.34644937     -0.00000000
  O      8    8      2.31273661      1.00537216     -0.00000000
  N      9    7      0.03446295      0.97739857     -0.00000000
  N     10    7     -1.17287765     -0.98229824      0.00000000
  C     11    6      1.20107039     -1.10433419     -0.00000000
  H     12    1      2.11220096     -1.67699125     -0.00000000
[GTO]
1    0
S    1    1.000000
   4.56324000E+03    1.96665000E-03 
S    1    1.000000
   6.82024000E+02    1.52306000E-02 
S    1    1.000000
   1.54973000E+02    7.61269000E-02 
S    1    1.000000
   4.44553000E+01    2.60801000E-01 
S    1    1.000000
   1.30290000E+01    6.16462000E-01 
S    1    1.000000
   1.82773000E+00    2.21006000E-01 
SP   3    1.000000
   2.09642000E+01    1.14660000E-01   4.02487000E-02 
   4.80331000E+00    9.19999000E-01   2.37594000E-01 
   1.45933000E+00   -3.03068000E-03   8.15854000E-01 
SP   1    1.000000
   4.83456000E-01    1.00000000E+00   1.00000000E+00 
SP   1    1.000000
   1.45585000E-01    1.00000000E+00   1.00000000E+00 
SP   1    1.000000
   4.38000000E-02    1.00000000E+00   1.00000000E+00 
SP   1    1.000000
   1.31927711E-02    1.00000000E+00   1.00000000E+00 
D    1    1.000000
   6.26000000E-01    1.00000000E+00 

2    0
S    3    1.000000
   3.38650000E+01    2.54938000E-02 
   5.09479000E+00    1.90373000E-01 
   1.15879000E+00    8.52161000E-01 
S    1    1.000000
   3.25840000E-01    1.00000000E+00 
S    1    1.000000
   1.02741000E-01    1.00000000E+00 
S    1    1.000000
   3.60000000E-02    1.00000000E+00 
P    1    1.000000
   7.50000000E-01    1.00000000E+00 

3    0
S    3    1.000000
   3.38650000E+01    2.54938000E-02 
   5.09479000E+00    1.90373000E-01 
   1.15879000E+00    8.52161000E-01 
S    1    1.000000
   3.25840000E-01    1.00000000E+00 
S    1    1.000000
   1.02741000E-01    1.00000000E+00 
S    1    1.000000
   3.60000000E-02    1.00000000E+00 
P    1    1.000000
   7.50000000E-01    1.00000000E+00 

4    0
S    3    1.000000
   3.38650000E+01    2.54938000E-02 
   5.09479000E+00    1.90373000E-01 
   1.15879000E+00    8.52161000E-01 
S    1    1.000000
   3.25840000E-01    1.00000000E+00 
S    1    1.000000
   1.02741000E-01    1.00000000E+00 
S    1    1.000000
   3.60000000E-02    1.00000000E+00 
P    1    1.000000
   7.50000000E-01    1.00000000E+00 

5    0
S    1    1.000000
   4.56324000E+03    1.96665000E-03 
S    1    1.000000
   6.82024000E+02    1.52306000E-02 
S    1    1.000000
   1.54973000E+02    7.61269000E-02 
S    1    1.000000
   4.44553000E+01    2.60801000E-01 
S    1    1.000000
   1.30290000E+01    6.16462000E-01 
S    1    1.000000
   1.82773000E+00    2.21006000E-01 
SP   3    1.000000
   2.09642000E+01    1.14660000E-01   4.02487000E-02 
   4.80331000E+00    9.19999000E-01   2.37594000E-01 
   1.45933000E+00   -3.03068000E-03   8.15854000E-01 
SP   1    1.000000
   4.83456000E-01    1.00000000E+00   1.00000000E+00 
SP   1    1.000000
   1.45585000E-01    1.00000000E+00   1.00000000E+00 
SP   1    1.000000
   4.38000000E-02    1.00000000E+00   1.00000000E+00 
SP   1    1.000000
   1.31927711E-02    1.00000000E+00   1.00000000E+00 
D    1    1.000000
   6.26000000E-01    1.00000000E+00 

6    0
S    1    1.000000
   8.58850000E+03    1.89515000E-03 
S    1    1.000000
   1.29723000E+03    1.43859000E-02 
S    1    1.000000
   2.99296000E+02    7.07320000E-02 
S    1    1.000000
   8.73771000E+01    2.40001000E-01 
S    1    1.000000
   2.56789000E+01    5.94797000E-01 
S    1    1.000000
   3.74004000E+00    2.80802000E-01 
SP   3    1.000000
   4.21175000E+01    1.13889000E-01   3.65114000E-02 
   9.62837000E+00    9.20811000E-01   2.37153000E-01 
   2.85332000E+00   -3.27447000E-03   8.19702000E-01 
SP   1    1.000000
   9.05661000E-01    1.00000000E+00   1.00000000E+00 
SP   1    1.000000
   2.55611000E-01    1.00000000E+00   1.00000000E+00 
SP   1    1.000000
   8.45000000E-02    1.00000000E+00   1.00000000E+00 
SP   1    1.000000
   2.54518072E-02    1.00000000E+00   1.00000000E+00 
D    1    1.000000
   1.29200000E+00    1.00000000E+00 

7    0
S    1    1.000000
   4.56324000E+03    1.96665000E-03 
S    1    1.000000
   6.82024000E+02    1.52306000E-02 
S    1    1.000000
   1.54973000E+02    7.61269000E-02 
S    1    1.000000
   4.44553000E+01    2.60801000E-01 
S    1    1.000000
   1.30290000E+01    6.16462000E-01 
S    1    1.000000
   1.82773000E+00    2.21006000E-01 
SP   3    1.000000
   2.09642000E+01    1.14660000E-01   4.02487000E-02 
   4.80331000E+00    9.19999000E-01   2.37594000E-01 
   1.45933000E+00   -3.03068000E-03   8.15854000E-01 
SP   1    1.000000
   4.83456000E-01    1.00000000E+00   1.00000000E+00 
SP   1    1.000000
   1.45585000E-01    1.00000000E+00   1.00000000E+00 
SP   1    1.000000
   4.38000000E-02    1.00000000E+00   1.00000000E+00 
SP   1    1.000000
   1.31927711E-02    1.00000000E+00   1.00000000E+00 
D    1    1.000000
   6.26000000E-01    1.00000000E+00 

8    0
S    1    1.000000
   8.58850000E+03    1.89515000E-03 
S    1    1.000000
   1.29723000E+03    1.43859000E-02 
S    1    1.000000
   2.99296000E+02    7.07320000E-02 
S    1    1.000000
   8.73771000E+01    2.40001000E-01 
S    1    1.000000
   2.56789000E+01    5.94797000E-01 
S    1    1.000000
   3.74004000E+00    2.80802000E-01 
SP   3    1.000000
   4.21175000E+01    1.13889000E-01   3.65114000E-02 
   9.62837000E+00    9.20811000E-01   2.37153000E-01 
   2.85332000E+00   -3.27447000E-03   8.19702000E-01 
SP   1    1.000000
   9.05661000E-01    1.00000000E+00   1.00000000E+00 
SP   1    1.000000
   2.55611000E-01    1.00000000E+00   1.00000000E+00 
SP   1    1.000000
   8.45000000E-02    1.00000000E+00   1.00000000E+00 
SP   1    1.000000
   2.54518072E-02    1.00000000E+00   1.00000000E+00 
D    1    1.000000
   1.29200000E+00    1.00000000E+00 

9    0
S    1    1.000000
   6.29348000E+03    1.96979000E-03 
S    1    1.000000
   9.49044000E+02    1.49613000E-02 
S    1    1.000000
   2.18776000E+02    7.35006000E-02 
S    1    1.000000
   6.36916000E+01    2.48937000E-01 
S    1    1.000000
   1.88282000E+01    6.02460000E-01 
S    1    1.000000
   2.72023000E+00    2.56202000E-01 
SP   3    1.000000
   3.06331000E+01    1.11906000E-01   3.83119000E-02 
   7.02614000E+00    9.21666000E-01   2.37403000E-01 
   2.11205000E+00   -2.56919000E-03   8.17592000E-01 
SP   1    1.000000
   6.84009000E-01    1.00000000E+00   1.00000000E+00 
SP   1    1.000000
   2.00878000E-01    1.00000000E+00   1.00000000E+00 
SP   1    1.000000
   6.39000000E-02    1.00000000E+00   1.00000000E+00 
SP   1    1.000000
   1.92469880E-02    1.00000000E+00   1.00000000E+00 
D    1    1.000000
   9.13000000E-01    1.00000000E+00 

10    0
S    1    1.000000
   6.29348000E+03    1.96979000E-03 
S    1    1.000000
   9.49044000E+02    1.49613000E-02 
S    1    1.000000
   2.18776000E+02    7.35006000E-02 
S    1    1.000000
   6.36916000E+01    2.48937000E-01 
S    1    1.000000
   1.88282000E+01    6.02460000E-01 
S    1    1.000000
   2.72023000E+00    2.56202000E-01 
SP   3    1.000000
   3.06331000E+01    1.11906000E-01   3.83119000E-02 
   7.02614000E+00    9.21666000E-01   2.37403000E-01 
   2.11205000E+00   -2.56919000E-03   8.17592000E-01 
SP   1    1.000000
   6.84009000E-01    1.00000000E+00   1.00000000E+00 
SP   1    1.000000
   2.00878000E-01    1.00000000E+00   1.00000000E+00 
SP   1    1.000000
   6.39000000E-02    1.00000000E+00   1.00000000E+00 
SP   1    1.000000
   1.92469880E-02    1.00000000E+00   1.00000000E+00 
D    1    1.000000
   9.13000000E-01    1.00000000E+00 

11    0
S    1    1.000000
   4.56324000E+03    1.96665000E-03 
S    1    1.000000
   6.82024000E+02    1.52306000E-02 
S    1    1.000000
   1.54973000E+02    7.61269000E-02 
S    1    1.000000
   4.44553000E+01    2.60801000E-01 
S    1    1.000000
   1.30290000E+01    6.16462000E-01 
S    1    1.000000
   1.82773000E+00    2.21006000E-01 
SP   3    1.000000
   2.09642000E+01    1.14660000E-01   4.02487000E-02 
   4.80331000E+00    9.19999000E-01   2.37594000E-01 
   1.45933000E+00   -3.03068000E-03   8.15854000E-01 
SP   1    1.000000
   4.83456000E-01    1.00000000E+00   1.00000000E+00 
SP   1    1.000000
   1.45585000E-01    1.00000000E+00   1.00000000E+00 
SP   1    1.000000
   4.38000000E-02    1.00000000E+00   1.00000000E+00 
SP   1    1.000000
   1.31927711E-02    1.00000000E+00   1.00000000E+00 
D    1    1.000000
   6.26000000E-01    1.00000000E+00 

12    0
S    3    1.000000
   3.38650000E+01    2.54938000E-02 
   5.09479000E+00    1.90373000E-01 
   1.15879000E+00    8.52161000E-01 
S    1    1.000000
   3.25840000E-01    1.00000000E+00 
S    1    1.000000
   1.02741000E-01    1.00000000E+00 
S    1    1.000000
   3.60000000E-02    1.00000000E+00 
P    1    1.000000
   7.50000000E-01    1.00000000E+00 

[MO]
Sym=X
Ene=0.007277
Spin=Alpha
Occup=1
1    1.64041242e-09
2    -1.24730937e-08
3    1.21138674e-07
4    -3.1545665e-07
5    4.82858322e-06
6    1.89256959e-05
7    -1.09552644e-05
8    2.15564446e-07
9    2.35479856e-06
10    -5.79355276e-16
11    -4.9354325e-05
12    -9.22501901e-06
13    -1.49998155e-05
14    -4.44753327e-16
15    0.000356776791
16    3.30135122e-05
17    0.00021203493
18    2.61561699e-15
19    -0.00192113804
20    -0.000442097614
21    0.000273841213
22    -5.52361536e-14
23    -0.000705139105
24    -0.000251832436
25    -9.25851543e-05
26    1.00645836e-13
27    -1.34225977e-05
28    2.55419952e-16
29    -2.70164768e-06
30    -8.74071702e-16
31    8.52140342e-06
32    -6.46889994e-07
33    -1.89863216e-05
34    3.12785139e-07
35    -0.000154761997
36    -4.07616346e-07
37    -1.64601504e-06
38    9.54704054e-16
39    1.53056488e-06
40    1.01539946e-05
41    0.000160228617
42    0.000312878079
43    -2.89845431e-06
44    3.50968254e-06
45    -7.79606447e-16
46    -9.03155193e-06
47    6.65759403e-06
48    -2.84427749e-05
49    -0.000100855876
50    1.0142617e-05
51    -4.97144599e-07
52    8.99072671e-16
53    1.04934664e-09
54    -4.76531402e-11
55    6.05948045e-08
56    -2.09258484e-08
57    1.96349457e-06
58    8.92959517e-06
59    -3.5206626e-06
60    9.52417883e-07
61    -7.87732473e-07
62    1.93642706e-15
63    -2.53552782e-05
64    1.94688086e-06
65    -6.63951474e-06
66    7.90655379e-15
67    4.99871755e-05
68    0.000222477912
69    -0.000126217803
70    1.22957817e-15
71    0.00102782908
72    0.00107034626
73    -9.9041545e-05
74    -2.01297328e-14
75    0.00115504964
76    0.000257843178
77    0.000445299727
78    -5.91208104e-14
79    6.23099485e-06
80    9.40452717e-17
81    1.06975938e-06
82    -9.91449674e-16
83    -6.30580826e-06
84    -1.39013774e-05
85    -0.000105751125
86    -0.000518513639
87    -0.0017646861
88    -0.00436711561
89    -0.00207258143
90    -0.00627627435
91    -2.06314194e-05
92    1.40991562e-05
93    2.49580754e-15
94    -7.55528397e-05
95    5.4879512e-06
96    -8.50991195e-06
97    1.95724013e-15
98    8.04926511e-05
99    4.22867368e-05
100    -8.79613624e-06
101    9.7121882e-15
102    0.000384131091
103    2.76870219e-05
104    -8.17186576e-05
105    -2.8867124e-15
106    0.00238928483
107    0.000375796551
108    -5.99186541e-05
109    1.81992913e-14
110    -2.82621507e-06
111    -4.12762482e-16
112    -1.81116927e-06
113    2.94979778e-16
114    1.06816903e-06
115    1.03001406e-08
116    1.23125241e-07
117    3.62621638e-07
118    3.10069266e-06
119    1.17879122e-05
120    0.000147377905
121    8.40277865e-07
122    -2.94379837e-05
123    -2.30912494e-05
124    -4.82925974e-16
125    -0.000491946174
126    -0.000494491067
127    -0.000318630617
128    -5.24874402e-15
129    0.0007552765
130    0.000215923104
131    0.000141886036
132    4.25492639e-17
133    0.000831153929
134    0.00318159954
135    0.00162138489
136    -8.02671943e-14
137    -0.000166130469
138    0.000436246635
139    -0.000797907303
140    5.64791502e-14
141    -0.000272216766
142    -1.62485753e-16
143    0.000104499517
144    -1.67810607e-15
145    -0.000125299037
146    -0.00104352349
147    -0.00793819343
148    -0.0389230769
149    -0.132465226
150    -0.327848508
151    -0.155812484
152    -0.471010599
153    0.0015937735
154    0.000985172374
155    -2.21035823e-15
156    -0.00525551483
157    -0.000744623365
158    -0.000463045755
159    -1.48376935e-15
160    0.000877766002
161    0.000300614073
162    0.000175849812
163    -1.0148575e-14
164    -0.00307586395
165    0.00017693972
166    0.000161411803
167    8.08161762e-15
168    -0.00672619225
169    0.00125731238
170    0.000406974708
171    -3.14623534e-15
172    0.000114217686
173    1.60482455e-16
174    -9.81916539e-05
175    3.62266494e-16
176    5.04236907e-05
177    4.11868298e-10
178    -2.21747979e-08
179    7.00634425e-08
180    -4.63784055e-07
181    4.87224012e-06
182    2.1049223e-05
183    -1.48094136e-05
184    1.48767746e-05
185    -4.69684838e-07
186    5.09841033e-16
187    -2.04124564e-05
188    -4.87505384e-05
189    5.23959561e-06
190    2.68167036e-15
191    -0.000128541397
192    1.28802331e-05
193    7.44504585e-05
194    -5.03974098e-15
195    0.000157795433
196    0.00011102033
197    -9.17576649e-05
198    2.87275843e-14
199    0.00225675403
200    0.00294130327
201    -4.92925404e-05
202    2.15957482e-14
203    1.2345442e-05
204    -6.74991942e-16
205    5.47878282e-06
206    -1.14570884e-15
207    -2.78539617e-05
208    1.31377277e-10
209    -3.49882457e-09
210    1.52586606e-08
211    -7.54101873e-08
212    8.36571976e-07
213    3.32906119e-06
214    -2.17505812e-06
215    4.56057381e-07
216    -5.13048703e-07
217    5.7509764e-16
218    -1.79703898e-06
219    -4.1216677e-06
220    2.73278883e-06
221    5.32357877e-15
222    -0.000126293399
223    -8.49469391e-05
224    -3.68748539e-05
225    -3.65816955e-15
226    -0.000691827419
227    -0.000250459751
228    -4.75122566e-05
229    3.10256857e-14
230    0.000119175816
231    -0.000285906573
232    0.000155563496
233    -1.55396555e-14
234    3.75834725e-06
235    6.29239487e-16
236    -3.55418865e-07
237    -5.32917938e-16
238    1.66273931e-06
239    -1.88500597e-09
240    -1.20575965e-08
241    -8.20941085e-08
242    -1.85518639e-07
243    -5.07898807e-07
244    3.76229926e-06
245    -2.82728286e-06
246    7.09648723e-06
247    1.20692587e-05
248    -2.48443605e-15
249    3.39116663e-06
250    -1.78741065e-05
251    -6.41071764e-05
252    9.9037204e-16
253    -0.000234664567
254    0.000179560562
255    -1.48536311e-05
256    -1.58249054e-14
257    0.00318890162
258    -0.00166144442
259    1.81574033e-05
260    6.9466141e-14
261    -0.000592515005
262    -0.000303458588
263    -0.000131662497
264    -1.30035088e-13
265    -3.90592797e-05
266    -1.72331938e-16
267    -1.01981161e-06
268    -1.89614482e-17
269    3.91039291e-05
270    -6.32177776e-06
271    -6.0691641e-05
272    3.71651566e-05
273    0.000979173571
274    1.62174995e-05
275    -4.97970461e-06
276    -1.14087353e-15
[5D]