[Molden Format]
[Atoms] (Angs)
  C      1    6     -0.00714236     -1.70213747     -0.00000000
  H      2    1     -2.06882847     -1.44022412      0.00000000
  H      3    1     -0.12337987     -2.77567521      0.00000000
  H      4    1      0.04651892      1.98813947     -0.00000000
  C      5    6     -1.21953563      0.40211669      0.00000000
  O      6    8     -2.25921553      1.03043814      0.00000000
  C      7    6      1.28797806      0.34644937     -0.00000000
  O      8    8      2.31273661      1.00537216     -0.00000000
  N      9    7      0.03446295      0.97739857     -0.00000000
  N     10    7     -1.17287765     -0.98229824      0.00000000
  C     11    6      1.20107039     -1.10433419     -0.00000000
  H     12    1      2.11220096     -1.67699125     -0.00000000
[GTO]
1    0
S    1    1.000000
   4.56324000E+03    1.96665000E-03 
S    1    1.000000
   6.82024000E+02    1.52306000E-02 
S    1    1.000000
   1.54973000E+02    7.61269000E-02 
S    1    1.000000
   4.44553000E+01    2.60801000E-01 
S    1    1.000000
   1.30290000E+01    6.16462000E-01 
S    1    1.000000
   1.82773000E+00    2.21006000E-01 
SP   3    1.000000
   2.09642000E+01    1.14660000E-01   4.02487000E-02 
   4.80331000E+00    9.19999000E-01   2.37594000E-01 
   1.45933000E+00   -3.03068000E-03   8.15854000E-01 
SP   1    1.000000
   4.83456000E-01    1.00000000E+00   1.00000000E+00 
SP   1    1.000000
   1.45585000E-01    1.00000000E+00   1.00000000E+00 
SP   1    1.000000
   4.38000000E-02    1.00000000E+00   1.00000000E+00 
SP   1    1.000000
   1.31927711E-02    1.00000000E+00   1.00000000E+00 
D    1    1.000000
   6.26000000E-01    1.00000000E+00 

2    0
S    3    1.000000
   3.38650000E+01    2.54938000E-02 
   5.09479000E+00    1.90373000E-01 
   1.15879000E+00    8.52161000E-01 
S    1    1.000000
   3.25840000E-01    1.00000000E+00 
S    1    1.000000
   1.02741000E-01    1.00000000E+00 
S    1    1.000000
   3.60000000E-02    1.00000000E+00 
P    1    1.000000
   7.50000000E-01    1.00000000E+00 

3    0
S    3    1.000000
   3.38650000E+01    2.54938000E-02 
   5.09479000E+00    1.90373000E-01 
   1.15879000E+00    8.52161000E-01 
S    1    1.000000
   3.25840000E-01    1.00000000E+00 
S    1    1.000000
   1.02741000E-01    1.00000000E+00 
S    1    1.000000
   3.60000000E-02    1.00000000E+00 
P    1    1.000000
   7.50000000E-01    1.00000000E+00 

4    0
S    3    1.000000
   3.38650000E+01    2.54938000E-02 
   5.09479000E+00    1.90373000E-01 
   1.15879000E+00    8.52161000E-01 
S    1    1.000000
   3.25840000E-01    1.00000000E+00 
S    1    1.000000
   1.02741000E-01    1.00000000E+00 
S    1    1.000000
   3.60000000E-02    1.00000000E+00 
P    1    1.000000
   7.50000000E-01    1.00000000E+00 

5    0
S    1    1.000000
   4.56324000E+03    1.96665000E-03 
S    1    1.000000
   6.82024000E+02    1.52306000E-02 
S    1    1.000000
   1.54973000E+02    7.61269000E-02 
S    1    1.000000
   4.44553000E+01    2.60801000E-01 
S    1    1.000000
   1.30290000E+01    6.16462000E-01 
S    1    1.000000
   1.82773000E+00    2.21006000E-01 
SP   3    1.000000
   2.09642000E+01    1.14660000E-01   4.02487000E-02 
   4.80331000E+00    9.19999000E-01   2.37594000E-01 
   1.45933000E+00   -3.03068000E-03   8.15854000E-01 
SP   1    1.000000
   4.83456000E-01    1.00000000E+00   1.00000000E+00 
SP   1    1.000000
   1.45585000E-01    1.00000000E+00   1.00000000E+00 
SP   1    1.000000
   4.38000000E-02    1.00000000E+00   1.00000000E+00 
SP   1    1.000000
   1.31927711E-02    1.00000000E+00   1.00000000E+00 
D    1    1.000000
   6.26000000E-01    1.00000000E+00 

6    0
S    1    1.000000
   8.58850000E+03    1.89515000E-03 
S    1    1.000000
   1.29723000E+03    1.43859000E-02 
S    1    1.000000
   2.99296000E+02    7.07320000E-02 
S    1    1.000000
   8.73771000E+01    2.40001000E-01 
S    1    1.000000
   2.56789000E+01    5.94797000E-01 
S    1    1.000000
   3.74004000E+00    2.80802000E-01 
SP   3    1.000000
   4.21175000E+01    1.13889000E-01   3.65114000E-02 
   9.62837000E+00    9.20811000E-01   2.37153000E-01 
   2.85332000E+00   -3.27447000E-03   8.19702000E-01 
SP   1    1.000000
   9.05661000E-01    1.00000000E+00   1.00000000E+00 
SP   1    1.000000
   2.55611000E-01    1.00000000E+00   1.00000000E+00 
SP   1    1.000000
   8.45000000E-02    1.00000000E+00   1.00000000E+00 
SP   1    1.000000
   2.54518072E-02    1.00000000E+00   1.00000000E+00 
D    1    1.000000
   1.29200000E+00    1.00000000E+00 

7    0
S    1    1.000000
   4.56324000E+03    1.96665000E-03 
S    1    1.000000
   6.82024000E+02    1.52306000E-02 
S    1    1.000000
   1.54973000E+02    7.61269000E-02 
S    1    1.000000
   4.44553000E+01    2.60801000E-01 
S    1    1.000000
   1.30290000E+01    6.16462000E-01 
S    1    1.000000
   1.82773000E+00    2.21006000E-01 
SP   3    1.000000
   2.09642000E+01    1.14660000E-01   4.02487000E-02 
   4.80331000E+00    9.19999000E-01   2.37594000E-01 
   1.45933000E+00   -3.03068000E-03   8.15854000E-01 
SP   1    1.000000
   4.83456000E-01    1.00000000E+00   1.00000000E+00 
SP   1    1.000000
   1.45585000E-01    1.00000000E+00   1.00000000E+00 
SP   1    1.000000
   4.38000000E-02    1.00000000E+00   1.00000000E+00 
SP   1    1.000000
   1.31927711E-02    1.00000000E+00   1.00000000E+00 
D    1    1.000000
   6.26000000E-01    1.00000000E+00 

8    0
S    1    1.000000
   8.58850000E+03    1.89515000E-03 
S    1    1.000000
   1.29723000E+03    1.43859000E-02 
S    1    1.000000
   2.99296000E+02    7.07320000E-02 
S    1    1.000000
   8.73771000E+01    2.40001000E-01 
S    1    1.000000
   2.56789000E+01    5.94797000E-01 
S    1    1.000000
   3.74004000E+00    2.80802000E-01 
SP   3    1.000000
   4.21175000E+01    1.13889000E-01   3.65114000E-02 
   9.62837000E+00    9.20811000E-01   2.37153000E-01 
   2.85332000E+00   -3.27447000E-03   8.19702000E-01 
SP   1    1.000000
   9.05661000E-01    1.00000000E+00   1.00000000E+00 
SP   1    1.000000
   2.55611000E-01    1.00000000E+00   1.00000000E+00 
SP   1    1.000000
   8.45000000E-02    1.00000000E+00   1.00000000E+00 
SP   1    1.000000
   2.54518072E-02    1.00000000E+00   1.00000000E+00 
D    1    1.000000
   1.29200000E+00    1.00000000E+00 

9    0
S    1    1.000000
   6.29348000E+03    1.96979000E-03 
S    1    1.000000
   9.49044000E+02    1.49613000E-02 
S    1    1.000000
   2.18776000E+02    7.35006000E-02 
S    1    1.000000
   6.36916000E+01    2.48937000E-01 
S    1    1.000000
   1.88282000E+01    6.02460000E-01 
S    1    1.000000
   2.72023000E+00    2.56202000E-01 
SP   3    1.000000
   3.06331000E+01    1.11906000E-01   3.83119000E-02 
   7.02614000E+00    9.21666000E-01   2.37403000E-01 
   2.11205000E+00   -2.56919000E-03   8.17592000E-01 
SP   1    1.000000
   6.84009000E-01    1.00000000E+00   1.00000000E+00 
SP   1    1.000000
   2.00878000E-01    1.00000000E+00   1.00000000E+00 
SP   1    1.000000
   6.39000000E-02    1.00000000E+00   1.00000000E+00 
SP   1    1.000000
   1.92469880E-02    1.00000000E+00   1.00000000E+00 
D    1    1.000000
   9.13000000E-01    1.00000000E+00 

10    0
S    1    1.000000
   6.29348000E+03    1.96979000E-03 
S    1    1.000000
   9.49044000E+02    1.49613000E-02 
S    1    1.000000
   2.18776000E+02    7.35006000E-02 
S    1    1.000000
   6.36916000E+01    2.48937000E-01 
S    1    1.000000
   1.88282000E+01    6.02460000E-01 
S    1    1.000000
   2.72023000E+00    2.56202000E-01 
SP   3    1.000000
   3.06331000E+01    1.11906000E-01   3.83119000E-02 
   7.02614000E+00    9.21666000E-01   2.37403000E-01 
   2.11205000E+00   -2.56919000E-03   8.17592000E-01 
SP   1    1.000000
   6.84009000E-01    1.00000000E+00   1.00000000E+00 
SP   1    1.000000
   2.00878000E-01    1.00000000E+00   1.00000000E+00 
SP   1    1.000000
   6.39000000E-02    1.00000000E+00   1.00000000E+00 
SP   1    1.000000
   1.92469880E-02    1.00000000E+00   1.00000000E+00 
D    1    1.000000
   9.13000000E-01    1.00000000E+00 

11    0
S    1    1.000000
   4.56324000E+03    1.96665000E-03 
S    1    1.000000
   6.82024000E+02    1.52306000E-02 
S    1    1.000000
   1.54973000E+02    7.61269000E-02 
S    1    1.000000
   4.44553000E+01    2.60801000E-01 
S    1    1.000000
   1.30290000E+01    6.16462000E-01 
S    1    1.000000
   1.82773000E+00    2.21006000E-01 
SP   3    1.000000
   2.09642000E+01    1.14660000E-01   4.02487000E-02 
   4.80331000E+00    9.19999000E-01   2.37594000E-01 
   1.45933000E+00   -3.03068000E-03   8.15854000E-01 
SP   1    1.000000
   4.83456000E-01    1.00000000E+00   1.00000000E+00 
SP   1    1.000000
   1.45585000E-01    1.00000000E+00   1.00000000E+00 
SP   1    1.000000
   4.38000000E-02    1.00000000E+00   1.00000000E+00 
SP   1    1.000000
   1.31927711E-02    1.00000000E+00   1.00000000E+00 
D    1    1.000000
   6.26000000E-01    1.00000000E+00 

12    0
S    3    1.000000
   3.38650000E+01    2.54938000E-02 
   5.09479000E+00    1.90373000E-01 
   1.15879000E+00    8.52161000E-01 
S    1    1.000000
   3.25840000E-01    1.00000000E+00 
S    1    1.000000
   1.02741000E-01    1.00000000E+00 
S    1    1.000000
   3.60000000E-02    1.00000000E+00 
P    1    1.000000
   7.50000000E-01    1.00000000E+00 

[MO]
Sym=X
Ene=0.923992
Spin=Alpha
Occup=1
1    -2.21855884e-07
2    -1.1001671e-06
3    -3.39889553e-06
4    -5.81465847e-06
5    3.97999223e-05
6    2.68825719e-06
7    4.108003e-05
8    -2.82173995e-05
9    -5.82579171e-16
10    -0.000232168324
11    0.000342086232
12    -0.000198079972
13    -2.23756405e-15
14    0.000289877114
15    -0.000150268366
16    2.59800966e-05
17    -1.01454891e-15
18    0.00201417835
19    0.000120537691
20    0.00120797615
21    -1.58911442e-14
22    -0.000158921277
23    -0.000160557672
24    0.000365913945
25    -9.95890843e-14
26    0.000211375395
27    2.94415848e-16
28    1.78434696e-06
29    -1.06835176e-16
30    -7.66329772e-05
31    -0.000231727868
32    -4.57088405e-05
33    -0.000413049744
34    -0.000331375788
35    -7.80061338e-05
36    -3.23208495e-05
37    -4.45754659e-16
38    -1.21033371e-05
39    -0.000133089226
40    0.000167610968
41    0.000846275377
42    1.76221706e-05
43    -6.33547223e-05
44    -6.87624196e-16
45    -5.52409014e-06
46    1.06258249e-05
47    0.000212219524
48    0.000308337458
49    5.06782089e-07
50    -2.82366008e-07
51    1.1756705e-15
52    -2.07911345e-08
53    -1.75039045e-07
54    -7.07923131e-07
55    -2.72416103e-06
56    -4.05040441e-08
57    5.05901161e-05
58    -9.75002561e-07
59    -1.05597223e-06
60    5.29754481e-05
61    9.61459844e-16
62    -0.000282122011
63    -2.08443401e-05
64    0.000324129728
65    5.00169521e-15
66    0.000250933933
67    -6.18663811e-05
68    -9.7604681e-05
69    -7.88845395e-16
70    0.000708332595
71    0.000400363649
72    -0.00029114927
73    -2.62586131e-14
74    0.000955942481
75    0.000328937714
76    0.000126276662
77    3.76621519e-14
78    4.03912534e-05
79    9.22258539e-16
80    1.2979999e-05
81    -4.13073497e-16
82    0.000191362434
83    -7.44458813e-09
84    -7.37781065e-08
85    -2.41031747e-07
86    -1.28345592e-06
87    1.21667365e-06
88    1.36934846e-05
89    -1.46083866e-05
90    4.18604544e-06
91    -1.68521999e-05
92    8.76725422e-16
93    -1.77227072e-05
94    -2.39314449e-05
95    2.81797273e-05
96    3.9102379e-15
97    -7.47904115e-05
98    -4.0081703e-06
99    1.19684254e-05
100    -1.95483709e-15
101    8.12881599e-05
102    -1.33686077e-05
103    1.65612644e-05
104    1.72104102e-14
105    0.000755042173
106    9.07350798e-05
107    -3.43904199e-05
108    -2.40158684e-14
109    1.89910876e-05
110    -1.80794877e-16
111    5.24829132e-06
112    4.66387037e-16
113    1.31365476e-05
114    1.01502079e-09
115    -7.93954941e-09
116    7.41103784e-08
117    -1.93308993e-07
118    3.45802846e-06
119    1.57549343e-05
120    -8.92475279e-06
121    -5.82498407e-06
122    -6.9644538e-06
123    9.95176003e-16
124    -2.18067417e-05
125    2.34231799e-05
126    3.52885792e-05
127    1.86901305e-15
128    -0.000240628092
129    -5.35908501e-05
130    -5.5518135e-05
131    5.98029091e-16
132    -0.00127247196
133    0.000478051066
134    0.00020240004
135    -1.41571164e-14
136    4.37446946e-05
137    0.000463956296
138    -0.000171817287
139    -9.10504033e-14
140    1.98193979e-06
141    8.58055943e-16
142    7.41041339e-06
143    5.55797547e-17
144    6.02095066e-06
145    5.12565764e-10
146    -3.04574576e-09
147    3.50519935e-08
148    -7.00656156e-08
149    1.58608728e-06
150    6.27388828e-06
151    -3.79379149e-06
152    -1.31605722e-06
153    -7.84518382e-07
154    9.09831723e-16
155    -1.39486916e-05
156    6.93897238e-06
157    4.97867057e-06
158    1.18621503e-15
159    4.33134973e-05
160    -2.38278718e-05
161    -1.63858883e-05
162    1.91934253e-15
163    0.000224003729
164    -0.000100187905
165    -4.30185238e-05
166    3.94028772e-15
167    -0.000153115594
168    -3.49386847e-05
169    -6.34279924e-05
170    1.81607728e-15
171    -1.0870688e-06
172    -1.19339858e-16
173    -6.37048679e-07
174    -5.13927634e-16
175    -6.65906151e-07
176    -6.63969479e-07
177    -5.09835871e-06
178    -2.46755357e-05
179    -8.49529028e-05
180    -0.000195023519
181    -5.09362363e-05
182    -0.000308044305
183    -1.60281179e-05
184    -1.30353601e-05
185    1.33542491e-15
186    -5.37070762e-05
187    5.34401235e-05
188    3.77049935e-05
189    2.49956217e-15
190    1.88182974e-05
191    -7.33836904e-06
192    -8.36301572e-05
193    2.96876336e-15
194    0.000476962253
195    -5.53913357e-05
196    -0.00047869379
197    1.60400911e-14
198    0.000446723501
199    0.000382276043
200    -0.00022819912
201    2.84809219e-14
202    -2.24466699e-05
203    -3.76443729e-18
204    7.22060994e-06
205    -1.35706503e-16
206    -9.74420464e-06
207    -0.00109720611
208    -0.00835411986
209    -0.0409332685
210    -0.138942619
211    -0.335942468
212    -0.144078758
213    -0.467458337
214    -0.00031843103
215    -0.00011689716
216    -7.05731797e-16
217    -0.00428286758
218    0.0001986718
219    4.58804738e-05
220    1.3113358e-15
221    0.000379895101
222    -9.91182018e-05
223    -1.38562263e-05
224    -3.67608347e-15
225    -0.00235596018
226    -0.00096709213
227    -0.000501742937
228    1.86795183e-14
229    -0.00172665214
230    -0.000414005495
231    -0.000223438903
232    2.78444154e-14
233    -3.67447363e-05
234    4.57426738e-16
235    -2.01309966e-05
236    -1.16264061e-16
237    -2.56835689e-05
238    2.1403797e-09
239    -3.5554309e-08
240    1.97932599e-07
241    -7.90877807e-07
242    1.11792412e-05
243    5.45620405e-05
244    -3.04109546e-05
245    -1.89541158e-05
246    -4.46070036e-06
247    1.81732817e-16
248    -0.000124166378
249    0.000122271251
250    4.05274413e-05
251    -3.07111264e-15
252    0.000156423892
253    -0.000131686754
254    3.85950415e-05
255    3.31001238e-15
256    -0.000928743027
257    0.00013233873
258    -0.000106388187
259    2.12218085e-15
260    -0.000440933722
261    -0.000375779519
262    -0.000598983421
263    1.21384233e-13
264    -2.20875012e-05
265    1.04284189e-15
266    9.87113017e-06
267    4.53423528e-16
268    -5.84438467e-05
269    -4.95604224e-06
270    1.16494466e-06
271    7.19074463e-05
272    -3.32301075e-05
273    9.314349e-06
274    4.80978404e-06
275    -5.28286441e-16
[5D]