[Molden Format]
[Atoms] (Angs)
  C      1    6     -0.00714236     -1.70213747     -0.00000000
  H      2    1     -2.06882847     -1.44022412      0.00000000
  H      3    1     -0.12337987     -2.77567521      0.00000000
  H      4    1      0.04651892      1.98813947     -0.00000000
  C      5    6     -1.21953563      0.40211669      0.00000000
  O      6    8     -2.25921553      1.03043814      0.00000000
  C      7    6      1.28797806      0.34644937     -0.00000000
  O      8    8      2.31273661      1.00537216     -0.00000000
  N      9    7      0.03446295      0.97739857     -0.00000000
  N     10    7     -1.17287765     -0.98229824      0.00000000
  C     11    6      1.20107039     -1.10433419     -0.00000000
  H     12    1      2.11220096     -1.67699125     -0.00000000
[GTO]
1    0
S    1    1.000000
   4.56324000E+03    1.96665000E-03 
S    1    1.000000
   6.82024000E+02    1.52306000E-02 
S    1    1.000000
   1.54973000E+02    7.61269000E-02 
S    1    1.000000
   4.44553000E+01    2.60801000E-01 
S    1    1.000000
   1.30290000E+01    6.16462000E-01 
S    1    1.000000
   1.82773000E+00    2.21006000E-01 
SP   3    1.000000
   2.09642000E+01    1.14660000E-01   4.02487000E-02 
   4.80331000E+00    9.19999000E-01   2.37594000E-01 
   1.45933000E+00   -3.03068000E-03   8.15854000E-01 
SP   1    1.000000
   4.83456000E-01    1.00000000E+00   1.00000000E+00 
SP   1    1.000000
   1.45585000E-01    1.00000000E+00   1.00000000E+00 
SP   1    1.000000
   4.38000000E-02    1.00000000E+00   1.00000000E+00 
SP   1    1.000000
   1.31927711E-02    1.00000000E+00   1.00000000E+00 
D    1    1.000000
   6.26000000E-01    1.00000000E+00 

2    0
S    3    1.000000
   3.38650000E+01    2.54938000E-02 
   5.09479000E+00    1.90373000E-01 
   1.15879000E+00    8.52161000E-01 
S    1    1.000000
   3.25840000E-01    1.00000000E+00 
S    1    1.000000
   1.02741000E-01    1.00000000E+00 
S    1    1.000000
   3.60000000E-02    1.00000000E+00 
P    1    1.000000
   7.50000000E-01    1.00000000E+00 

3    0
S    3    1.000000
   3.38650000E+01    2.54938000E-02 
   5.09479000E+00    1.90373000E-01 
   1.15879000E+00    8.52161000E-01 
S    1    1.000000
   3.25840000E-01    1.00000000E+00 
S    1    1.000000
   1.02741000E-01    1.00000000E+00 
S    1    1.000000
   3.60000000E-02    1.00000000E+00 
P    1    1.000000
   7.50000000E-01    1.00000000E+00 

4    0
S    3    1.000000
   3.38650000E+01    2.54938000E-02 
   5.09479000E+00    1.90373000E-01 
   1.15879000E+00    8.52161000E-01 
S    1    1.000000
   3.25840000E-01    1.00000000E+00 
S    1    1.000000
   1.02741000E-01    1.00000000E+00 
S    1    1.000000
   3.60000000E-02    1.00000000E+00 
P    1    1.000000
   7.50000000E-01    1.00000000E+00 

5    0
S    1    1.000000
   4.56324000E+03    1.96665000E-03 
S    1    1.000000
   6.82024000E+02    1.52306000E-02 
S    1    1.000000
   1.54973000E+02    7.61269000E-02 
S    1    1.000000
   4.44553000E+01    2.60801000E-01 
S    1    1.000000
   1.30290000E+01    6.16462000E-01 
S    1    1.000000
   1.82773000E+00    2.21006000E-01 
SP   3    1.000000
   2.09642000E+01    1.14660000E-01   4.02487000E-02 
   4.80331000E+00    9.19999000E-01   2.37594000E-01 
   1.45933000E+00   -3.03068000E-03   8.15854000E-01 
SP   1    1.000000
   4.83456000E-01    1.00000000E+00   1.00000000E+00 
SP   1    1.000000
   1.45585000E-01    1.00000000E+00   1.00000000E+00 
SP   1    1.000000
   4.38000000E-02    1.00000000E+00   1.00000000E+00 
SP   1    1.000000
   1.31927711E-02    1.00000000E+00   1.00000000E+00 
D    1    1.000000
   6.26000000E-01    1.00000000E+00 

6    0
S    1    1.000000
   8.58850000E+03    1.89515000E-03 
S    1    1.000000
   1.29723000E+03    1.43859000E-02 
S    1    1.000000
   2.99296000E+02    7.07320000E-02 
S    1    1.000000
   8.73771000E+01    2.40001000E-01 
S    1    1.000000
   2.56789000E+01    5.94797000E-01 
S    1    1.000000
   3.74004000E+00    2.80802000E-01 
SP   3    1.000000
   4.21175000E+01    1.13889000E-01   3.65114000E-02 
   9.62837000E+00    9.20811000E-01   2.37153000E-01 
   2.85332000E+00   -3.27447000E-03   8.19702000E-01 
SP   1    1.000000
   9.05661000E-01    1.00000000E+00   1.00000000E+00 
SP   1    1.000000
   2.55611000E-01    1.00000000E+00   1.00000000E+00 
SP   1    1.000000
   8.45000000E-02    1.00000000E+00   1.00000000E+00 
SP   1    1.000000
   2.54518072E-02    1.00000000E+00   1.00000000E+00 
D    1    1.000000
   1.29200000E+00    1.00000000E+00 

7    0
S    1    1.000000
   4.56324000E+03    1.96665000E-03 
S    1    1.000000
   6.82024000E+02    1.52306000E-02 
S    1    1.000000
   1.54973000E+02    7.61269000E-02 
S    1    1.000000
   4.44553000E+01    2.60801000E-01 
S    1    1.000000
   1.30290000E+01    6.16462000E-01 
S    1    1.000000
   1.82773000E+00    2.21006000E-01 
SP   3    1.000000
   2.09642000E+01    1.14660000E-01   4.02487000E-02 
   4.80331000E+00    9.19999000E-01   2.37594000E-01 
   1.45933000E+00   -3.03068000E-03   8.15854000E-01 
SP   1    1.000000
   4.83456000E-01    1.00000000E+00   1.00000000E+00 
SP   1    1.000000
   1.45585000E-01    1.00000000E+00   1.00000000E+00 
SP   1    1.000000
   4.38000000E-02    1.00000000E+00   1.00000000E+00 
SP   1    1.000000
   1.31927711E-02    1.00000000E+00   1.00000000E+00 
D    1    1.000000
   6.26000000E-01    1.00000000E+00 

8    0
S    1    1.000000
   8.58850000E+03    1.89515000E-03 
S    1    1.000000
   1.29723000E+03    1.43859000E-02 
S    1    1.000000
   2.99296000E+02    7.07320000E-02 
S    1    1.000000
   8.73771000E+01    2.40001000E-01 
S    1    1.000000
   2.56789000E+01    5.94797000E-01 
S    1    1.000000
   3.74004000E+00    2.80802000E-01 
SP   3    1.000000
   4.21175000E+01    1.13889000E-01   3.65114000E-02 
   9.62837000E+00    9.20811000E-01   2.37153000E-01 
   2.85332000E+00   -3.27447000E-03   8.19702000E-01 
SP   1    1.000000
   9.05661000E-01    1.00000000E+00   1.00000000E+00 
SP   1    1.000000
   2.55611000E-01    1.00000000E+00   1.00000000E+00 
SP   1    1.000000
   8.45000000E-02    1.00000000E+00   1.00000000E+00 
SP   1    1.000000
   2.54518072E-02    1.00000000E+00   1.00000000E+00 
D    1    1.000000
   1.29200000E+00    1.00000000E+00 

9    0
S    1    1.000000
   6.29348000E+03    1.96979000E-03 
S    1    1.000000
   9.49044000E+02    1.49613000E-02 
S    1    1.000000
   2.18776000E+02    7.35006000E-02 
S    1    1.000000
   6.36916000E+01    2.48937000E-01 
S    1    1.000000
   1.88282000E+01    6.02460000E-01 
S    1    1.000000
   2.72023000E+00    2.56202000E-01 
SP   3    1.000000
   3.06331000E+01    1.11906000E-01   3.83119000E-02 
   7.02614000E+00    9.21666000E-01   2.37403000E-01 
   2.11205000E+00   -2.56919000E-03   8.17592000E-01 
SP   1    1.000000
   6.84009000E-01    1.00000000E+00   1.00000000E+00 
SP   1    1.000000
   2.00878000E-01    1.00000000E+00   1.00000000E+00 
SP   1    1.000000
   6.39000000E-02    1.00000000E+00   1.00000000E+00 
SP   1    1.000000
   1.92469880E-02    1.00000000E+00   1.00000000E+00 
D    1    1.000000
   9.13000000E-01    1.00000000E+00 

10    0
S    1    1.000000
   6.29348000E+03    1.96979000E-03 
S    1    1.000000
   9.49044000E+02    1.49613000E-02 
S    1    1.000000
   2.18776000E+02    7.35006000E-02 
S    1    1.000000
   6.36916000E+01    2.48937000E-01 
S    1    1.000000
   1.88282000E+01    6.02460000E-01 
S    1    1.000000
   2.72023000E+00    2.56202000E-01 
SP   3    1.000000
   3.06331000E+01    1.11906000E-01   3.83119000E-02 
   7.02614000E+00    9.21666000E-01   2.37403000E-01 
   2.11205000E+00   -2.56919000E-03   8.17592000E-01 
SP   1    1.000000
   6.84009000E-01    1.00000000E+00   1.00000000E+00 
SP   1    1.000000
   2.00878000E-01    1.00000000E+00   1.00000000E+00 
SP   1    1.000000
   6.39000000E-02    1.00000000E+00   1.00000000E+00 
SP   1    1.000000
   1.92469880E-02    1.00000000E+00   1.00000000E+00 
D    1    1.000000
   9.13000000E-01    1.00000000E+00 

11    0
S    1    1.000000
   4.56324000E+03    1.96665000E-03 
S    1    1.000000
   6.82024000E+02    1.52306000E-02 
S    1    1.000000
   1.54973000E+02    7.61269000E-02 
S    1    1.000000
   4.44553000E+01    2.60801000E-01 
S    1    1.000000
   1.30290000E+01    6.16462000E-01 
S    1    1.000000
   1.82773000E+00    2.21006000E-01 
SP   3    1.000000
   2.09642000E+01    1.14660000E-01   4.02487000E-02 
   4.80331000E+00    9.19999000E-01   2.37594000E-01 
   1.45933000E+00   -3.03068000E-03   8.15854000E-01 
SP   1    1.000000
   4.83456000E-01    1.00000000E+00   1.00000000E+00 
SP   1    1.000000
   1.45585000E-01    1.00000000E+00   1.00000000E+00 
SP   1    1.000000
   4.38000000E-02    1.00000000E+00   1.00000000E+00 
SP   1    1.000000
   1.31927711E-02    1.00000000E+00   1.00000000E+00 
D    1    1.000000
   6.26000000E-01    1.00000000E+00 

12    0
S    3    1.000000
   3.38650000E+01    2.54938000E-02 
   5.09479000E+00    1.90373000E-01 
   1.15879000E+00    8.52161000E-01 
S    1    1.000000
   3.25840000E-01    1.00000000E+00 
S    1    1.000000
   1.02741000E-01    1.00000000E+00 
S    1    1.000000
   3.60000000E-02    1.00000000E+00 
P    1    1.000000
   7.50000000E-01    1.00000000E+00 

[MO]
Sym=X
Ene=0.925561
Spin=Alpha
Occup=1
1    1.49941505e-08
2    -1.1017575e-07
3    3.50588191e-07
4    -5.44798106e-06
5    -2.50029243e-05
6    1.40962148e-05
7    -2.05894451e-06
8    -7.77726511e-06
9    -1.82325834e-15
10    4.76308529e-05
11    2.39837725e-05
12    4.06800806e-05
13    -1.50713431e-15
14    0.000133191175
15    -6.00781899e-05
16    4.49661703e-05
17    -2.11339123e-15
18    0.00100208464
19    -0.000120308556
20    0.00076355847
21    1.40248251e-14
22    2.73755363e-05
23    -0.000386886963
24    0.000274131377
25    5.51064809e-14
26    9.14687503e-06
27    3.59641547e-16
28    -7.53785642e-06
29    -1.39596573e-16
30    5.23961167e-06
31    5.5793095e-06
32    -3.48698478e-05
33    -0.000179191406
34    -0.000343459734
35    -2.8229431e-06
36    -3.31235487e-06
37    -4.1418998e-16
38    3.41837716e-06
39    -8.58520388e-07
40    4.43140055e-05
41    0.000633516494
42    2.53617642e-06
43    1.79945393e-06
44    -1.01022618e-15
45    0.00024016808
46    0.000100596066
47    0.00032044417
48    0.00025769561
49    9.1934033e-07
50    -0.000107314412
51    2.02184017e-15
52    2.18590629e-08
53    1.68579167e-07
54    7.84380626e-07
55    2.58167727e-06
56    3.66009189e-06
57    -3.06650256e-05
58    -7.25419491e-06
59    5.74121535e-05
60    2.93961922e-05
61    1.28754534e-15
62    0.000251671204
63    0.000223171451
64    9.23701656e-05
65    -3.07913887e-16
66    -0.000230460831
67    -8.14352055e-06
68    2.61877247e-05
69    5.30004096e-15
70    -0.00137960125
71    -0.000455840376
72    0.000210304976
73    3.19954965e-14
74    -0.000928811845
75    -4.398249e-05
76    0.000408432744
77    -9.07782082e-15
78    8.50462481e-05
79    6.94179193e-16
80    -3.58769045e-06
81    8.573972e-16
82    0.000121507195
83    7.36339101e-09
84    6.3918402e-08
85    2.59054713e-07
86    1.09381463e-06
87    6.73706659e-07
88    -5.28995921e-06
89    9.08801229e-06
90    -1.37292185e-05
91    -5.04568597e-06
92    6.16808979e-16
93    2.34899922e-06
94    2.05683001e-05
95    -1.31707997e-06
96    -1.33504787e-16
97    5.01896194e-05
98    3.96599039e-06
99    -6.59683272e-06
100    3.59315657e-15
101    -7.41522416e-05
102    5.46401115e-06
103    -3.49707606e-06
104    -1.07380756e-14
105    -0.000119031909
106    6.98181624e-05
107    3.34819989e-05
108    7.59160992e-15
109    4.04267631e-06
110    -1.80849894e-16
111    -4.39656741e-06
112    3.47204129e-16
113    1.80784829e-05
114    2.23307134e-08
115    2.07502858e-07
116    7.24062135e-07
117    3.39582969e-06
118    -2.6849932e-06
119    -6.07186396e-05
120    1.19022154e-05
121    -3.36118714e-05
122    2.38605251e-05
123    2.87370454e-15
124    0.000266337258
125    -0.000311938367
126    0.000172921917
127    6.07557222e-15
128    -0.000257994731
129    0.000207751903
130    -0.000183985244
131    6.43056417e-15
132    -0.00144125182
133    0.000800339842
134    0.000473649952
135    2.54452912e-14
136    0.000181734119
137    0.000326801058
138    -9.14154949e-05
139    4.82441473e-14
140    -0.00016540301
141    1.0507857e-15
142    -1.09141049e-05
143    4.70351864e-17
144    0.000140316481
145    6.56070507e-09
146    7.60959969e-08
147    1.87358769e-07
148    1.34526808e-06
149    -3.39759671e-06
150    -2.2375032e-05
151    1.96207274e-05
152    1.95130188e-05
153    -2.00934896e-06
154    2.40634145e-15
155    3.6246319e-05
156    -4.85913669e-05
157    -1.97710157e-05
158    4.4491676e-15
159    4.97608647e-05
160    1.05858411e-05
161    2.47103065e-05
162    5.23518329e-15
163    -0.000221969524
164    -3.47896154e-05
165    1.17291356e-05
166    3.19207837e-15
167    -0.00113236387
168    0.0001571136
169    4.02956055e-05
170    -3.15619763e-15
171    5.94433759e-06
172    -2.72241015e-16
173    -4.7059991e-06
174    -9.16141106e-16
175    2.23142925e-05
176    0.00109718536
177    0.00835402036
178    0.0409324059
179    0.138943193
180    0.335939763
181    0.144108153
182    0.467414529
183    0.00031414423
184    -0.000293989017
185    2.65215907e-15
186    0.00434388686
187    -0.000204476536
188    0.000137083673
189    2.63478828e-15
190    -0.000319454472
191    0.00019509953
192    -0.000139106644
193    7.09654049e-15
194    0.00227338284
195    -9.12181558e-05
196    -0.000901574234
197    -1.62819731e-14
198    0.00192506829
199    0.000451766383
200    -0.000466042533
201    -2.85045811e-14
202    2.89155635e-05
203    -1.34211615e-16
204    2.68568138e-05
205    2.11226e-18
206    1.96640287e-06
207    -4.27887116e-07
208    -3.22063558e-06
209    -1.60454491e-05
210    -5.34260095e-05
211    -0.000138193183
212    -8.75273949e-05
213    -0.000160299218
214    -4.44976958e-06
215    -1.70939851e-05
216    -1.4922249e-15
217    4.1864747e-05
218    9.89598271e-06
219    4.79265389e-05
220    -5.20413634e-16
221    -4.4672103e-07
222    -0.000124973394
223    -1.69925632e-05
224    -3.44015741e-15
225    -0.000419891771
226    -0.000427886879
227    -0.000100786466
228    -1.58082366e-14
229    -0.00051192644
230    -0.000425743248
231    0.00018882755
232    -3.47130517e-14
233    4.13121262e-06
234    2.50455745e-16
235    -6.42885167e-06
236    -3.3790998e-16
237    -1.87732253e-05
238    -1.21454877e-09
239    3.28141121e-08
240    -1.39676907e-07
241    7.17727577e-07
242    -8.73882069e-06
243    -4.09082408e-05
244    2.46050872e-05
245    -1.98261296e-07
246    -2.08800622e-05
247    -3.8055654e-16
248    8.33424115e-05
249    1.14012142e-05
250    0.000108857773
251    1.45326299e-15
252    -0.000214745774
253    5.71772492e-05
254    -0.000189412431
255    -2.43312796e-15
256    0.000483229242
257    3.98068471e-05
258    -6.51025592e-05
259    -1.11583569e-14
260    0.00035040431
261    -0.00029183511
262    -0.000500038709
263    -7.00033445e-14
264    -1.07380118e-05
265    8.03448214e-16
266    1.29676128e-06
267    5.78226617e-16
268    -5.37223262e-05
269    7.61241927e-06
270    7.03100971e-06
271    -0.000101688934
272    -8.60946569e-05
273    -3.05969007e-06
274    1.21477636e-05
275    3.79447735e-17
[5D]