[Molden Format]
[Atoms] (Angs)
  C      1    6     -0.00714236     -1.70213747     -0.00000000
  H      2    1     -2.06882847     -1.44022412      0.00000000
  H      3    1     -0.12337987     -2.77567521      0.00000000
  H      4    1      0.04651892      1.98813947     -0.00000000
  C      5    6     -1.21953563      0.40211669      0.00000000
  O      6    8     -2.25921553      1.03043814      0.00000000
  C      7    6      1.28797806      0.34644937     -0.00000000
  O      8    8      2.31273661      1.00537216     -0.00000000
  N      9    7      0.03446295      0.97739857     -0.00000000
  N     10    7     -1.17287765     -0.98229824      0.00000000
  C     11    6      1.20107039     -1.10433419     -0.00000000
  H     12    1      2.11220096     -1.67699125     -0.00000000
[GTO]
1    0
S    1    1.000000
   4.56324000E+03    1.96665000E-03 
S    1    1.000000
   6.82024000E+02    1.52306000E-02 
S    1    1.000000
   1.54973000E+02    7.61269000E-02 
S    1    1.000000
   4.44553000E+01    2.60801000E-01 
S    1    1.000000
   1.30290000E+01    6.16462000E-01 
S    1    1.000000
   1.82773000E+00    2.21006000E-01 
SP   3    1.000000
   2.09642000E+01    1.14660000E-01   4.02487000E-02 
   4.80331000E+00    9.19999000E-01   2.37594000E-01 
   1.45933000E+00   -3.03068000E-03   8.15854000E-01 
SP   1    1.000000
   4.83456000E-01    1.00000000E+00   1.00000000E+00 
SP   1    1.000000
   1.45585000E-01    1.00000000E+00   1.00000000E+00 
SP   1    1.000000
   4.38000000E-02    1.00000000E+00   1.00000000E+00 
SP   1    1.000000
   1.31927711E-02    1.00000000E+00   1.00000000E+00 
D    1    1.000000
   6.26000000E-01    1.00000000E+00 

2    0
S    3    1.000000
   3.38650000E+01    2.54938000E-02 
   5.09479000E+00    1.90373000E-01 
   1.15879000E+00    8.52161000E-01 
S    1    1.000000
   3.25840000E-01    1.00000000E+00 
S    1    1.000000
   1.02741000E-01    1.00000000E+00 
S    1    1.000000
   3.60000000E-02    1.00000000E+00 
P    1    1.000000
   7.50000000E-01    1.00000000E+00 

3    0
S    3    1.000000
   3.38650000E+01    2.54938000E-02 
   5.09479000E+00    1.90373000E-01 
   1.15879000E+00    8.52161000E-01 
S    1    1.000000
   3.25840000E-01    1.00000000E+00 
S    1    1.000000
   1.02741000E-01    1.00000000E+00 
S    1    1.000000
   3.60000000E-02    1.00000000E+00 
P    1    1.000000
   7.50000000E-01    1.00000000E+00 

4    0
S    3    1.000000
   3.38650000E+01    2.54938000E-02 
   5.09479000E+00    1.90373000E-01 
   1.15879000E+00    8.52161000E-01 
S    1    1.000000
   3.25840000E-01    1.00000000E+00 
S    1    1.000000
   1.02741000E-01    1.00000000E+00 
S    1    1.000000
   3.60000000E-02    1.00000000E+00 
P    1    1.000000
   7.50000000E-01    1.00000000E+00 

5    0
S    1    1.000000
   4.56324000E+03    1.96665000E-03 
S    1    1.000000
   6.82024000E+02    1.52306000E-02 
S    1    1.000000
   1.54973000E+02    7.61269000E-02 
S    1    1.000000
   4.44553000E+01    2.60801000E-01 
S    1    1.000000
   1.30290000E+01    6.16462000E-01 
S    1    1.000000
   1.82773000E+00    2.21006000E-01 
SP   3    1.000000
   2.09642000E+01    1.14660000E-01   4.02487000E-02 
   4.80331000E+00    9.19999000E-01   2.37594000E-01 
   1.45933000E+00   -3.03068000E-03   8.15854000E-01 
SP   1    1.000000
   4.83456000E-01    1.00000000E+00   1.00000000E+00 
SP   1    1.000000
   1.45585000E-01    1.00000000E+00   1.00000000E+00 
SP   1    1.000000
   4.38000000E-02    1.00000000E+00   1.00000000E+00 
SP   1    1.000000
   1.31927711E-02    1.00000000E+00   1.00000000E+00 
D    1    1.000000
   6.26000000E-01    1.00000000E+00 

6    0
S    1    1.000000
   8.58850000E+03    1.89515000E-03 
S    1    1.000000
   1.29723000E+03    1.43859000E-02 
S    1    1.000000
   2.99296000E+02    7.07320000E-02 
S    1    1.000000
   8.73771000E+01    2.40001000E-01 
S    1    1.000000
   2.56789000E+01    5.94797000E-01 
S    1    1.000000
   3.74004000E+00    2.80802000E-01 
SP   3    1.000000
   4.21175000E+01    1.13889000E-01   3.65114000E-02 
   9.62837000E+00    9.20811000E-01   2.37153000E-01 
   2.85332000E+00   -3.27447000E-03   8.19702000E-01 
SP   1    1.000000
   9.05661000E-01    1.00000000E+00   1.00000000E+00 
SP   1    1.000000
   2.55611000E-01    1.00000000E+00   1.00000000E+00 
SP   1    1.000000
   8.45000000E-02    1.00000000E+00   1.00000000E+00 
SP   1    1.000000
   2.54518072E-02    1.00000000E+00   1.00000000E+00 
D    1    1.000000
   1.29200000E+00    1.00000000E+00 

7    0
S    1    1.000000
   4.56324000E+03    1.96665000E-03 
S    1    1.000000
   6.82024000E+02    1.52306000E-02 
S    1    1.000000
   1.54973000E+02    7.61269000E-02 
S    1    1.000000
   4.44553000E+01    2.60801000E-01 
S    1    1.000000
   1.30290000E+01    6.16462000E-01 
S    1    1.000000
   1.82773000E+00    2.21006000E-01 
SP   3    1.000000
   2.09642000E+01    1.14660000E-01   4.02487000E-02 
   4.80331000E+00    9.19999000E-01   2.37594000E-01 
   1.45933000E+00   -3.03068000E-03   8.15854000E-01 
SP   1    1.000000
   4.83456000E-01    1.00000000E+00   1.00000000E+00 
SP   1    1.000000
   1.45585000E-01    1.00000000E+00   1.00000000E+00 
SP   1    1.000000
   4.38000000E-02    1.00000000E+00   1.00000000E+00 
SP   1    1.000000
   1.31927711E-02    1.00000000E+00   1.00000000E+00 
D    1    1.000000
   6.26000000E-01    1.00000000E+00 

8    0
S    1    1.000000
   8.58850000E+03    1.89515000E-03 
S    1    1.000000
   1.29723000E+03    1.43859000E-02 
S    1    1.000000
   2.99296000E+02    7.07320000E-02 
S    1    1.000000
   8.73771000E+01    2.40001000E-01 
S    1    1.000000
   2.56789000E+01    5.94797000E-01 
S    1    1.000000
   3.74004000E+00    2.80802000E-01 
SP   3    1.000000
   4.21175000E+01    1.13889000E-01   3.65114000E-02 
   9.62837000E+00    9.20811000E-01   2.37153000E-01 
   2.85332000E+00   -3.27447000E-03   8.19702000E-01 
SP   1    1.000000
   9.05661000E-01    1.00000000E+00   1.00000000E+00 
SP   1    1.000000
   2.55611000E-01    1.00000000E+00   1.00000000E+00 
SP   1    1.000000
   8.45000000E-02    1.00000000E+00   1.00000000E+00 
SP   1    1.000000
   2.54518072E-02    1.00000000E+00   1.00000000E+00 
D    1    1.000000
   1.29200000E+00    1.00000000E+00 

9    0
S    1    1.000000
   6.29348000E+03    1.96979000E-03 
S    1    1.000000
   9.49044000E+02    1.49613000E-02 
S    1    1.000000
   2.18776000E+02    7.35006000E-02 
S    1    1.000000
   6.36916000E+01    2.48937000E-01 
S    1    1.000000
   1.88282000E+01    6.02460000E-01 
S    1    1.000000
   2.72023000E+00    2.56202000E-01 
SP   3    1.000000
   3.06331000E+01    1.11906000E-01   3.83119000E-02 
   7.02614000E+00    9.21666000E-01   2.37403000E-01 
   2.11205000E+00   -2.56919000E-03   8.17592000E-01 
SP   1    1.000000
   6.84009000E-01    1.00000000E+00   1.00000000E+00 
SP   1    1.000000
   2.00878000E-01    1.00000000E+00   1.00000000E+00 
SP   1    1.000000
   6.39000000E-02    1.00000000E+00   1.00000000E+00 
SP   1    1.000000
   1.92469880E-02    1.00000000E+00   1.00000000E+00 
D    1    1.000000
   9.13000000E-01    1.00000000E+00 

10    0
S    1    1.000000
   6.29348000E+03    1.96979000E-03 
S    1    1.000000
   9.49044000E+02    1.49613000E-02 
S    1    1.000000
   2.18776000E+02    7.35006000E-02 
S    1    1.000000
   6.36916000E+01    2.48937000E-01 
S    1    1.000000
   1.88282000E+01    6.02460000E-01 
S    1    1.000000
   2.72023000E+00    2.56202000E-01 
SP   3    1.000000
   3.06331000E+01    1.11906000E-01   3.83119000E-02 
   7.02614000E+00    9.21666000E-01   2.37403000E-01 
   2.11205000E+00   -2.56919000E-03   8.17592000E-01 
SP   1    1.000000
   6.84009000E-01    1.00000000E+00   1.00000000E+00 
SP   1    1.000000
   2.00878000E-01    1.00000000E+00   1.00000000E+00 
SP   1    1.000000
   6.39000000E-02    1.00000000E+00   1.00000000E+00 
SP   1    1.000000
   1.92469880E-02    1.00000000E+00   1.00000000E+00 
D    1    1.000000
   9.13000000E-01    1.00000000E+00 

11    0
S    1    1.000000
   4.56324000E+03    1.96665000E-03 
S    1    1.000000
   6.82024000E+02    1.52306000E-02 
S    1    1.000000
   1.54973000E+02    7.61269000E-02 
S    1    1.000000
   4.44553000E+01    2.60801000E-01 
S    1    1.000000
   1.30290000E+01    6.16462000E-01 
S    1    1.000000
   1.82773000E+00    2.21006000E-01 
SP   3    1.000000
   2.09642000E+01    1.14660000E-01   4.02487000E-02 
   4.80331000E+00    9.19999000E-01   2.37594000E-01 
   1.45933000E+00   -3.03068000E-03   8.15854000E-01 
SP   1    1.000000
   4.83456000E-01    1.00000000E+00   1.00000000E+00 
SP   1    1.000000
   1.45585000E-01    1.00000000E+00   1.00000000E+00 
SP   1    1.000000
   4.38000000E-02    1.00000000E+00   1.00000000E+00 
SP   1    1.000000
   1.31927711E-02    1.00000000E+00   1.00000000E+00 
D    1    1.000000
   6.26000000E-01    1.00000000E+00 

12    0
S    3    1.000000
   3.38650000E+01    2.54938000E-02 
   5.09479000E+00    1.90373000E-01 
   1.15879000E+00    8.52161000E-01 
S    1    1.000000
   3.25840000E-01    1.00000000E+00 
S    1    1.000000
   1.02741000E-01    1.00000000E+00 
S    1    1.000000
   3.60000000E-02    1.00000000E+00 
P    1    1.000000
   7.50000000E-01    1.00000000E+00 

[MO]
Sym=X
Ene=0.028145
Spin=Alpha
Occup=1
1    -2.19234972e-07
2    -1.10569293e-06
3    -3.3466094e-06
4    -6.33226884e-06
5    3.70900132e-05
6    4.08968412e-06
7    4.06667362e-05
8    -2.88561486e-05
9    -7.62658341e-16
10    -0.000226219584
11    0.000342773253
12    -0.000193000345
13    -2.37758991e-15
14    0.000301789014
15    -0.000155543089
16    3.03635948e-05
17    -1.2215615e-15
18    0.00210465013
19    0.000107855233
20    0.00127855091
21    -1.44033154e-14
22    -0.000155372194
23    -0.000198584066
24    0.000391589616
25    -9.35575223e-14
26    0.00021123048
27    3.29036724e-16
28    1.01872281e-06
29    -1.20308773e-16
30    -7.57215906e-05
31    -0.000230002384
32    -4.89790527e-05
33    -0.000428959109
34    -0.000364185441
35    -7.78971801e-05
36    -3.24907402e-05
37    -4.85086834e-16
38    -1.16993402e-05
39    -0.000132505938
40    0.000171216563
41    0.000905613801
42    1.77881265e-05
43    -6.28554377e-05
44    -7.85567588e-16
45    1.86113829e-05
46    2.06701124e-05
47    0.00024331833
48    0.000332653312
49    5.96474456e-07
50    -1.10530165e-05
51    1.37271103e-15
52    -1.84923431e-08
53    -1.57236374e-07
54    -6.25626315e-07
55    -2.4513002e-06
56    3.27132122e-07
57    4.72581563e-05
58    -1.69820873e-06
59    4.71243406e-06
60    5.56596587e-05
61    1.08586912e-15
62    -0.000255442829
63    1.66428754e-06
64    0.000331770177
65    4.94563623e-15
66    0.00022654255
67    -6.23751236e-05
68    -9.4483579e-05
69    -2.52856583e-16
70    0.000566297042
71    0.000352579917
72    -0.000268566689
73    -2.29147731e-14
74    0.000857894327
75    0.000322867702
76    0.000166638064
77    3.65619667e-14
78    4.87260979e-05
79    9.87303668e-16
80    1.25549761e-05
81    -3.24929411e-16
82    0.000202596092
83    -1.14841263e-08
84    -1.03627604e-07
85    -3.93456882e-07
86    -1.77857176e-06
87    -2.34986276e-07
88    1.23762389e-05
89    -1.57971871e-05
90    2.77913779e-06
91    -1.72694767e-05
92    9.34230663e-16
93    -1.7420409e-05
94    -2.17428068e-05
95    2.7903694e-05
96    3.87717061e-15
97    -6.93735834e-05
98    -3.5919584e-06
99    1.12471956e-05
100    -1.58433088e-15
101    7.34204687e-05
102    -1.2753997e-05
103    1.61277049e-05
104    1.60459952e-14
105    0.000739259474
106    9.72801618e-05
107    -3.08532963e-05
108    -2.31332242e-14
109    1.9300947e-05
110    -1.98039376e-16
111    4.78099027e-06
112    4.98893299e-16
113    1.48854177e-05
114    3.25143793e-09
115    1.29291318e-08
116    1.46417982e-07
117    1.48529467e-07
118    3.17112116e-06
119    9.58078005e-06
120    -7.68514948e-06
121    -9.16959891e-06
122    -4.53433714e-06
123    1.27864053e-15
124    5.03772191e-06
125    -8.00613467e-06
126    5.24689557e-05
127    2.46946887e-15
128    -0.000265315597
129    -3.24685077e-05
130    -7.37077069e-05
131    1.24057124e-15
132    -0.00141073472
133    0.000555976573
134    0.000248923748
135    -1.15316815e-14
136    6.17689613e-05
137    0.000494425502
138    -0.000180127553
139    -8.5750486e-14
140    -1.4630757e-05
141    9.59218236e-16
142    6.27754268e-06
143    6.002312e-17
144    2.00754904e-05
145    1.72881318e-09
146    8.86995942e-09
147    7.45802109e-08
148    1.36439509e-07
149    1.41308012e-06
150    4.08036133e-06
151    -1.55245627e-06
152    6.48337445e-07
153    -9.82837438e-07
154    1.14680285e-15
155    -1.02371488e-05
156    2.02700385e-06
157    2.96931765e-06
158    1.62686027e-15
159    4.80902073e-05
160    -2.2645755e-05
161    -1.38232354e-05
162    2.4352052e-15
163    0.000200599893
164    -0.00010317644
165    -4.16252546e-05
166    4.24085249e-15
167    -0.000265995532
168    -1.89946069e-05
169    -5.90647771e-05
170    1.49025963e-15
171    -4.85138938e-07
172    -1.46067003e-16
173    -1.10629526e-06
174    -6.03304393e-16
175    1.57720578e-06
176    0.000109473205
177    0.000833491423
178    0.0040841826
179    0.0138623854
180    0.0335270912
181    0.0144146822
182    0.0466118802
183    1.55857331e-05
184    -4.24799731e-05
185    1.59493401e-15
186    0.000382595765
187    3.26466157e-05
188    5.12756103e-05
189    2.75147672e-15
190    -1.33426504e-05
191    1.22822147e-05
192    -9.71729305e-05
193    3.66617562e-15
194    0.000702761344
195    -6.4269069e-05
196    -0.000566785868
197    1.43250447e-14
198    0.00063771805
199    0.00042568823
200    -0.000273831785
201    2.54763594e-14
202    -1.94313057e-05
203    -1.72180274e-17
204    9.88015693e-06
205    -1.3480982e-16
206    -9.49793844e-06
207    -0.00109173067
208    -0.00831242616
209    -0.0407290055
210    -0.138249171
211    -0.334266719
212    -0.143362901
213    -0.46512335
214    -0.000317276186
215    -0.000118025026
216    -8.51968259e-16
217    -0.00425712482
218    0.00019866604
219    5.04602656e-05
220    1.25250217e-15
221    0.000377939769
222    -0.000111164266
223    -1.54920768e-05
224    -4.00288064e-15
225    -0.00238625939
226    -0.00100517825
227    -0.000509336057
228    1.69986673e-14
229    -0.00176934567
230    -0.000454660314
231    -0.000203357439
232    2.4220113e-14
233    -3.61451481e-05
234    4.80267431e-16
235    -2.06750466e-05
236    -1.49596986e-16
237    -2.74387108e-05
238    2.00770026e-09
239    -3.20816459e-08
240    1.82916525e-07
241    -7.14855424e-07
242    1.0245824e-05
243    5.01813086e-05
244    -2.77881761e-05
245    -1.88786988e-05
246    -6.5341871e-06
247    1.42622718e-16
248    -0.000115176094
249    0.000122800801
250    5.1250654e-05
251    -2.90978016e-15
252    0.000134080516
253    -0.00012528464
254    1.93876484e-05
255    3.04915459e-15
256    -0.000875581694
257    0.000135673155
258    -0.000112389843
259    9.91299667e-16
260    -0.000403541921
261    -0.000403182788
262    -0.000646162604
263    1.13747919e-13
264    -2.30542736e-05
265    1.11824714e-15
266    9.95164084e-06
267    5.09183343e-16
268    -6.35425051e-05
269    -4.16699351e-06
270    1.86480448e-06
271    6.13381591e-05
272    -4.17059053e-05
273    8.96037753e-06
274    6.0049647e-06
275    -5.21816407e-16
[5D]