[Molden Format]
[Atoms] (Angs)
  C      1    6     -0.00714236     -1.70213747     -0.00000000
  H      2    1     -2.06882847     -1.44022412      0.00000000
  H      3    1     -0.12337987     -2.77567521      0.00000000
  H      4    1      0.04651892      1.98813947     -0.00000000
  C      5    6     -1.21953563      0.40211669      0.00000000
  O      6    8     -2.25921553      1.03043814      0.00000000
  C      7    6      1.28797806      0.34644937     -0.00000000
  O      8    8      2.31273661      1.00537216     -0.00000000
  N      9    7      0.03446295      0.97739857     -0.00000000
  N     10    7     -1.17287765     -0.98229824      0.00000000
  C     11    6      1.20107039     -1.10433419     -0.00000000
  H     12    1      2.11220096     -1.67699125     -0.00000000
[GTO]
1    0
S    1    1.000000
   4.56324000E+03    1.96665000E-03 
S    1    1.000000
   6.82024000E+02    1.52306000E-02 
S    1    1.000000
   1.54973000E+02    7.61269000E-02 
S    1    1.000000
   4.44553000E+01    2.60801000E-01 
S    1    1.000000
   1.30290000E+01    6.16462000E-01 
S    1    1.000000
   1.82773000E+00    2.21006000E-01 
SP   3    1.000000
   2.09642000E+01    1.14660000E-01   4.02487000E-02 
   4.80331000E+00    9.19999000E-01   2.37594000E-01 
   1.45933000E+00   -3.03068000E-03   8.15854000E-01 
SP   1    1.000000
   4.83456000E-01    1.00000000E+00   1.00000000E+00 
SP   1    1.000000
   1.45585000E-01    1.00000000E+00   1.00000000E+00 
SP   1    1.000000
   4.38000000E-02    1.00000000E+00   1.00000000E+00 
SP   1    1.000000
   1.31927711E-02    1.00000000E+00   1.00000000E+00 
D    1    1.000000
   6.26000000E-01    1.00000000E+00 

2    0
S    3    1.000000
   3.38650000E+01    2.54938000E-02 
   5.09479000E+00    1.90373000E-01 
   1.15879000E+00    8.52161000E-01 
S    1    1.000000
   3.25840000E-01    1.00000000E+00 
S    1    1.000000
   1.02741000E-01    1.00000000E+00 
S    1    1.000000
   3.60000000E-02    1.00000000E+00 
P    1    1.000000
   7.50000000E-01    1.00000000E+00 

3    0
S    3    1.000000
   3.38650000E+01    2.54938000E-02 
   5.09479000E+00    1.90373000E-01 
   1.15879000E+00    8.52161000E-01 
S    1    1.000000
   3.25840000E-01    1.00000000E+00 
S    1    1.000000
   1.02741000E-01    1.00000000E+00 
S    1    1.000000
   3.60000000E-02    1.00000000E+00 
P    1    1.000000
   7.50000000E-01    1.00000000E+00 

4    0
S    3    1.000000
   3.38650000E+01    2.54938000E-02 
   5.09479000E+00    1.90373000E-01 
   1.15879000E+00    8.52161000E-01 
S    1    1.000000
   3.25840000E-01    1.00000000E+00 
S    1    1.000000
   1.02741000E-01    1.00000000E+00 
S    1    1.000000
   3.60000000E-02    1.00000000E+00 
P    1    1.000000
   7.50000000E-01    1.00000000E+00 

5    0
S    1    1.000000
   4.56324000E+03    1.96665000E-03 
S    1    1.000000
   6.82024000E+02    1.52306000E-02 
S    1    1.000000
   1.54973000E+02    7.61269000E-02 
S    1    1.000000
   4.44553000E+01    2.60801000E-01 
S    1    1.000000
   1.30290000E+01    6.16462000E-01 
S    1    1.000000
   1.82773000E+00    2.21006000E-01 
SP   3    1.000000
   2.09642000E+01    1.14660000E-01   4.02487000E-02 
   4.80331000E+00    9.19999000E-01   2.37594000E-01 
   1.45933000E+00   -3.03068000E-03   8.15854000E-01 
SP   1    1.000000
   4.83456000E-01    1.00000000E+00   1.00000000E+00 
SP   1    1.000000
   1.45585000E-01    1.00000000E+00   1.00000000E+00 
SP   1    1.000000
   4.38000000E-02    1.00000000E+00   1.00000000E+00 
SP   1    1.000000
   1.31927711E-02    1.00000000E+00   1.00000000E+00 
D    1    1.000000
   6.26000000E-01    1.00000000E+00 

6    0
S    1    1.000000
   8.58850000E+03    1.89515000E-03 
S    1    1.000000
   1.29723000E+03    1.43859000E-02 
S    1    1.000000
   2.99296000E+02    7.07320000E-02 
S    1    1.000000
   8.73771000E+01    2.40001000E-01 
S    1    1.000000
   2.56789000E+01    5.94797000E-01 
S    1    1.000000
   3.74004000E+00    2.80802000E-01 
SP   3    1.000000
   4.21175000E+01    1.13889000E-01   3.65114000E-02 
   9.62837000E+00    9.20811000E-01   2.37153000E-01 
   2.85332000E+00   -3.27447000E-03   8.19702000E-01 
SP   1    1.000000
   9.05661000E-01    1.00000000E+00   1.00000000E+00 
SP   1    1.000000
   2.55611000E-01    1.00000000E+00   1.00000000E+00 
SP   1    1.000000
   8.45000000E-02    1.00000000E+00   1.00000000E+00 
SP   1    1.000000
   2.54518072E-02    1.00000000E+00   1.00000000E+00 
D    1    1.000000
   1.29200000E+00    1.00000000E+00 

7    0
S    1    1.000000
   4.56324000E+03    1.96665000E-03 
S    1    1.000000
   6.82024000E+02    1.52306000E-02 
S    1    1.000000
   1.54973000E+02    7.61269000E-02 
S    1    1.000000
   4.44553000E+01    2.60801000E-01 
S    1    1.000000
   1.30290000E+01    6.16462000E-01 
S    1    1.000000
   1.82773000E+00    2.21006000E-01 
SP   3    1.000000
   2.09642000E+01    1.14660000E-01   4.02487000E-02 
   4.80331000E+00    9.19999000E-01   2.37594000E-01 
   1.45933000E+00   -3.03068000E-03   8.15854000E-01 
SP   1    1.000000
   4.83456000E-01    1.00000000E+00   1.00000000E+00 
SP   1    1.000000
   1.45585000E-01    1.00000000E+00   1.00000000E+00 
SP   1    1.000000
   4.38000000E-02    1.00000000E+00   1.00000000E+00 
SP   1    1.000000
   1.31927711E-02    1.00000000E+00   1.00000000E+00 
D    1    1.000000
   6.26000000E-01    1.00000000E+00 

8    0
S    1    1.000000
   8.58850000E+03    1.89515000E-03 
S    1    1.000000
   1.29723000E+03    1.43859000E-02 
S    1    1.000000
   2.99296000E+02    7.07320000E-02 
S    1    1.000000
   8.73771000E+01    2.40001000E-01 
S    1    1.000000
   2.56789000E+01    5.94797000E-01 
S    1    1.000000
   3.74004000E+00    2.80802000E-01 
SP   3    1.000000
   4.21175000E+01    1.13889000E-01   3.65114000E-02 
   9.62837000E+00    9.20811000E-01   2.37153000E-01 
   2.85332000E+00   -3.27447000E-03   8.19702000E-01 
SP   1    1.000000
   9.05661000E-01    1.00000000E+00   1.00000000E+00 
SP   1    1.000000
   2.55611000E-01    1.00000000E+00   1.00000000E+00 
SP   1    1.000000
   8.45000000E-02    1.00000000E+00   1.00000000E+00 
SP   1    1.000000
   2.54518072E-02    1.00000000E+00   1.00000000E+00 
D    1    1.000000
   1.29200000E+00    1.00000000E+00 

9    0
S    1    1.000000
   6.29348000E+03    1.96979000E-03 
S    1    1.000000
   9.49044000E+02    1.49613000E-02 
S    1    1.000000
   2.18776000E+02    7.35006000E-02 
S    1    1.000000
   6.36916000E+01    2.48937000E-01 
S    1    1.000000
   1.88282000E+01    6.02460000E-01 
S    1    1.000000
   2.72023000E+00    2.56202000E-01 
SP   3    1.000000
   3.06331000E+01    1.11906000E-01   3.83119000E-02 
   7.02614000E+00    9.21666000E-01   2.37403000E-01 
   2.11205000E+00   -2.56919000E-03   8.17592000E-01 
SP   1    1.000000
   6.84009000E-01    1.00000000E+00   1.00000000E+00 
SP   1    1.000000
   2.00878000E-01    1.00000000E+00   1.00000000E+00 
SP   1    1.000000
   6.39000000E-02    1.00000000E+00   1.00000000E+00 
SP   1    1.000000
   1.92469880E-02    1.00000000E+00   1.00000000E+00 
D    1    1.000000
   9.13000000E-01    1.00000000E+00 

10    0
S    1    1.000000
   6.29348000E+03    1.96979000E-03 
S    1    1.000000
   9.49044000E+02    1.49613000E-02 
S    1    1.000000
   2.18776000E+02    7.35006000E-02 
S    1    1.000000
   6.36916000E+01    2.48937000E-01 
S    1    1.000000
   1.88282000E+01    6.02460000E-01 
S    1    1.000000
   2.72023000E+00    2.56202000E-01 
SP   3    1.000000
   3.06331000E+01    1.11906000E-01   3.83119000E-02 
   7.02614000E+00    9.21666000E-01   2.37403000E-01 
   2.11205000E+00   -2.56919000E-03   8.17592000E-01 
SP   1    1.000000
   6.84009000E-01    1.00000000E+00   1.00000000E+00 
SP   1    1.000000
   2.00878000E-01    1.00000000E+00   1.00000000E+00 
SP   1    1.000000
   6.39000000E-02    1.00000000E+00   1.00000000E+00 
SP   1    1.000000
   1.92469880E-02    1.00000000E+00   1.00000000E+00 
D    1    1.000000
   9.13000000E-01    1.00000000E+00 

11    0
S    1    1.000000
   4.56324000E+03    1.96665000E-03 
S    1    1.000000
   6.82024000E+02    1.52306000E-02 
S    1    1.000000
   1.54973000E+02    7.61269000E-02 
S    1    1.000000
   4.44553000E+01    2.60801000E-01 
S    1    1.000000
   1.30290000E+01    6.16462000E-01 
S    1    1.000000
   1.82773000E+00    2.21006000E-01 
SP   3    1.000000
   2.09642000E+01    1.14660000E-01   4.02487000E-02 
   4.80331000E+00    9.19999000E-01   2.37594000E-01 
   1.45933000E+00   -3.03068000E-03   8.15854000E-01 
SP   1    1.000000
   4.83456000E-01    1.00000000E+00   1.00000000E+00 
SP   1    1.000000
   1.45585000E-01    1.00000000E+00   1.00000000E+00 
SP   1    1.000000
   4.38000000E-02    1.00000000E+00   1.00000000E+00 
SP   1    1.000000
   1.31927711E-02    1.00000000E+00   1.00000000E+00 
D    1    1.000000
   6.26000000E-01    1.00000000E+00 

12    0
S    3    1.000000
   3.38650000E+01    2.54938000E-02 
   5.09479000E+00    1.90373000E-01 
   1.15879000E+00    8.52161000E-01 
S    1    1.000000
   3.25840000E-01    1.00000000E+00 
S    1    1.000000
   1.02741000E-01    1.00000000E+00 
S    1    1.000000
   3.60000000E-02    1.00000000E+00 
P    1    1.000000
   7.50000000E-01    1.00000000E+00 

[MO]
Sym=X
Ene=0.923992
Spin=Alpha
Occup=1
    -2.96407162e-08
    -2.21855884e-07
    -1.1001671e-06
    -3.39889553e-06
    -5.81465847e-06
    3.97999223e-05
    2.68825719e-06
    4.108003e-05
    -2.82173995e-05
    -5.82579171e-16
    -0.000232168324
    0.000342086232
    -0.000198079972
    -2.23756405e-15
    0.000289877114
    -0.000150268366
    2.59800966e-05
    -1.01454891e-15
    0.00201417835
    0.000120537691
    0.00120797615
    -1.58911442e-14
    -0.000158921277
    -0.000160557672
    0.000365913945
    -9.95890843e-14
    0.000211375395
    2.94415848e-16
    1.78434696e-06
    -1.06835176e-16
    -7.66329772e-05
    -0.000231727868
    -4.57088405e-05
    -0.000413049744
    -0.000331375788
    -7.80061338e-05
    -3.23208495e-05
    -4.45754659e-16
    -1.21033371e-05
    -0.000133089226
    0.000167610968
    0.000846275377
    1.76221706e-05
    -6.33547223e-05
    -6.87624196e-16
    -5.52409014e-06
    1.06258249e-05
    0.000212219524
    0.000308337458
    5.06782089e-07
    -2.82366008e-07
    1.1756705e-15
    -2.07911345e-08
    -1.75039045e-07
    -7.07923131e-07
    -2.72416103e-06
    -4.05040441e-08
    5.05901161e-05
    -9.75002561e-07
    -1.05597223e-06
    5.29754481e-05
    9.61459844e-16
    -0.000282122011
    -2.08443401e-05
    0.000324129728
    5.00169521e-15
    0.000250933933
    -6.18663811e-05
    -9.7604681e-05
    -7.88845395e-16
    0.000708332595
    0.000400363649
    -0.00029114927
    -2.62586131e-14
    0.000955942481
    0.000328937714
    0.000126276662
    3.76621519e-14
    4.03912534e-05
    9.22258539e-16
    1.2979999e-05
    -4.13073497e-16
    0.000191362434
    -7.44458813e-09
    -7.37781065e-08
    -2.41031747e-07
    -1.28345592e-06
    1.21667365e-06
    1.36934846e-05
    -1.46083866e-05
    4.18604544e-06
    -1.68521999e-05
    8.76725422e-16
    -1.77227072e-05
    -2.39314449e-05
    2.81797273e-05
    3.9102379e-15
    -7.47904115e-05
    -4.0081703e-06
    1.19684254e-05
    -1.95483709e-15
    8.12881599e-05
    -1.33686077e-05
    1.65612644e-05
    1.72104102e-14
    0.000755042173
    9.07350798e-05
    -3.43904199e-05
    -2.40158684e-14
    1.89910876e-05
    -1.80794877e-16
    5.24829132e-06
    4.66387037e-16
    1.31365476e-05
    1.01502079e-09
    -7.93954941e-09
    7.41103784e-08
    -1.93308993e-07
    3.45802846e-06
    1.57549343e-05
    -8.92475279e-06
    -5.82498407e-06
    -6.9644538e-06
    9.95176003e-16
    -2.18067417e-05
    2.34231799e-05
    3.52885792e-05
    1.86901305e-15
    -0.000240628092
    -5.35908501e-05
    -5.5518135e-05
    5.98029091e-16
    -0.00127247196
    0.000478051066
    0.00020240004
    -1.41571164e-14
    4.37446946e-05
    0.000463956296
    -0.000171817287
    -9.10504033e-14
    1.98193979e-06
    8.58055943e-16
    7.41041339e-06
    5.55797547e-17
    6.02095066e-06
    5.12565764e-10
    -3.04574576e-09
    3.50519935e-08
    -7.00656156e-08
    1.58608728e-06
    6.27388828e-06
    -3.79379149e-06
    -1.31605722e-06
    -7.84518382e-07
    9.09831723e-16
    -1.39486916e-05
    6.93897238e-06
    4.97867057e-06
    1.18621503e-15
    4.33134973e-05
    -2.38278718e-05
    -1.63858883e-05
    1.91934253e-15
    0.000224003729
    -0.000100187905
    -4.30185238e-05
    3.94028772e-15
    -0.000153115594
    -3.49386847e-05
    -6.34279924e-05
    1.81607728e-15
    -1.0870688e-06
    -1.19339858e-16
    -6.37048679e-07
    -5.13927634e-16
    -6.65906151e-07
    -6.63969479e-07
    -5.09835871e-06
    -2.46755357e-05
    -8.49529028e-05
    -0.000195023519
    -5.09362363e-05
    -0.000308044305
    -1.60281179e-05
    -1.30353601e-05
    1.33542491e-15
    -5.37070762e-05
    5.34401235e-05
    3.77049935e-05
    2.49956217e-15
    1.88182974e-05
    -7.33836904e-06
    -8.36301572e-05
    2.96876336e-15
    0.000476962253
    -5.53913357e-05
    -0.00047869379
    1.60400911e-14
    0.000446723501
    0.000382276043
    -0.00022819912
    2.84809219e-14
    -2.24466699e-05
    -3.76443729e-18
    7.22060994e-06
    -1.35706503e-16
    -9.74420464e-06
    -0.00109720611
    -0.00835411986
    -0.0409332685
    -0.138942619
    -0.335942468
    -0.144078758
    -0.467458337
    -0.00031843103
    -0.00011689716
    -7.05731797e-16
    -0.00428286758
    0.0001986718
    4.58804738e-05
    1.3113358e-15
    0.000379895101
    -9.91182018e-05
    -1.38562263e-05
    -3.67608347e-15
    -0.00235596018
    -0.00096709213
    -0.000501742937
    1.86795183e-14
    -0.00172665214
    -0.000414005495
    -0.000223438903
    2.78444154e-14
    -3.67447363e-05
    4.57426738e-16
    -2.01309966e-05
    -1.16264061e-16
    -2.56835689e-05
    2.1403797e-09
    -3.5554309e-08
    1.97932599e-07
    -7.90877807e-07
    1.11792412e-05
    5.45620405e-05
    -3.04109546e-05
    -1.89541158e-05
    -4.46070036e-06
    1.81732817e-16
    -0.000124166378
    0.000122271251
    4.05274413e-05
    -3.07111264e-15
    0.000156423892
    -0.000131686754
    3.85950415e-05
    3.31001238e-15
    -0.000928743027
    0.00013233873
    -0.000106388187
    2.12218085e-15
    -0.000440933722
    -0.000375779519
    -0.000598983421
    1.21384233e-13
    -2.20875012e-05
    1.04284189e-15
    9.87113017e-06
    4.53423528e-16
    -5.84438467e-05
    -4.95604224e-06
    1.16494466e-06
    7.19074463e-05
    -3.32301075e-05
    9.314349e-06
    4.80978404e-06
    -5.28286441e-16
Sym=X
Ene=0.925561
Spin=Alpha
Occup=1
    -1.37205596e-09
    1.49941505e-08
    -1.1017575e-07
    3.50588191e-07
    -5.44798106e-06
    -2.50029243e-05
    1.40962148e-05
    -2.05894451e-06
    -7.77726511e-06
    -1.82325834e-15
    4.76308529e-05
    2.39837725e-05
    4.06800806e-05
    -1.50713431e-15
    0.000133191175
    -6.00781899e-05
    4.49661703e-05
    -2.11339123e-15
    0.00100208464
    -0.000120308556
    0.00076355847
    1.40248251e-14
    2.73755363e-05
    -0.000386886963
    0.000274131377
    5.51064809e-14
    9.14687503e-06
    3.59641547e-16
    -7.53785642e-06
    -1.39596573e-16
    5.23961167e-06
    5.5793095e-06
    -3.48698478e-05
    -0.000179191406
    -0.000343459734
    -2.8229431e-06
    -3.31235487e-06
    -4.1418998e-16
    3.41837716e-06
    -8.58520388e-07
    4.43140055e-05
    0.000633516494
    2.53617642e-06
    1.79945393e-06
    -1.01022618e-15
    0.00024016808
    0.000100596066
    0.00032044417
    0.00025769561
    9.1934033e-07
    -0.000107314412
    2.02184017e-15
    2.18590629e-08
    1.68579167e-07
    7.84380626e-07
    2.58167727e-06
    3.66009189e-06
    -3.06650256e-05
    -7.25419491e-06
    5.74121535e-05
    2.93961922e-05
    1.28754534e-15
    0.000251671204
    0.000223171451
    9.23701656e-05
    -3.07913887e-16
    -0.000230460831
    -8.14352055e-06
    2.61877247e-05
    5.30004096e-15
    -0.00137960125
    -0.000455840376
    0.000210304976
    3.19954965e-14
    -0.000928811845
    -4.398249e-05
    0.000408432744
    -9.07782082e-15
    8.50462481e-05
    6.94179193e-16
    -3.58769045e-06
    8.573972e-16
    0.000121507195
    7.36339101e-09
    6.3918402e-08
    2.59054713e-07
    1.09381463e-06
    6.73706659e-07
    -5.28995921e-06
    9.08801229e-06
    -1.37292185e-05
    -5.04568597e-06
    6.16808979e-16
    2.34899922e-06
    2.05683001e-05
    -1.31707997e-06
    -1.33504787e-16
    5.01896194e-05
    3.96599039e-06
    -6.59683272e-06
    3.59315657e-15
    -7.41522416e-05
    5.46401115e-06
    -3.49707606e-06
    -1.07380756e-14
    -0.000119031909
    6.98181624e-05
    3.34819989e-05
    7.59160992e-15
    4.04267631e-06
    -1.80849894e-16
    -4.39656741e-06
    3.47204129e-16
    1.80784829e-05
    2.23307134e-08
    2.07502858e-07
    7.24062135e-07
    3.39582969e-06
    -2.6849932e-06
    -6.07186396e-05
    1.19022154e-05
    -3.36118714e-05
    2.38605251e-05
    2.87370454e-15
    0.000266337258
    -0.000311938367
    0.000172921917
    6.07557222e-15
    -0.000257994731
    0.000207751903
    -0.000183985244
    6.43056417e-15
    -0.00144125182
    0.000800339842
    0.000473649952
    2.54452912e-14
    0.000181734119
    0.000326801058
    -9.14154949e-05
    4.82441473e-14
    -0.00016540301
    1.0507857e-15
    -1.09141049e-05
    4.70351864e-17
    0.000140316481
    6.56070507e-09
    7.60959969e-08
    1.87358769e-07
    1.34526808e-06
    -3.39759671e-06
    -2.2375032e-05
    1.96207274e-05
    1.95130188e-05
    -2.00934896e-06
    2.40634145e-15
    3.6246319e-05
    -4.85913669e-05
    -1.97710157e-05
    4.4491676e-15
    4.97608647e-05
    1.05858411e-05
    2.47103065e-05
    5.23518329e-15
    -0.000221969524
    -3.47896154e-05
    1.17291356e-05
    3.19207837e-15
    -0.00113236387
    0.0001571136
    4.02956055e-05
    -3.15619763e-15
    5.94433759e-06
    -2.72241015e-16
    -4.7059991e-06
    -9.16141106e-16
    2.23142925e-05
    0.00109718536
    0.00835402036
    0.0409324059
    0.138943193
    0.335939763
    0.144108153
    0.467414529
    0.00031414423
    -0.000293989017
    2.65215907e-15
    0.00434388686
    -0.000204476536
    0.000137083673
    2.63478828e-15
    -0.000319454472
    0.00019509953
    -0.000139106644
    7.09654049e-15
    0.00227338284
    -9.12181558e-05
    -0.000901574234
    -1.62819731e-14
    0.00192506829
    0.000451766383
    -0.000466042533
    -2.85045811e-14
    2.89155635e-05
    -1.34211615e-16
    2.68568138e-05
    2.11226e-18
    1.96640287e-06
    -4.27887116e-07
    -3.22063558e-06
    -1.60454491e-05
    -5.34260095e-05
    -0.000138193183
    -8.75273949e-05
    -0.000160299218
    -4.44976958e-06
    -1.70939851e-05
    -1.4922249e-15
    4.1864747e-05
    9.89598271e-06
    4.79265389e-05
    -5.20413634e-16
    -4.4672103e-07
    -0.000124973394
    -1.69925632e-05
    -3.44015741e-15
    -0.000419891771
    -0.000427886879
    -0.000100786466
    -1.58082366e-14
    -0.00051192644
    -0.000425743248
    0.00018882755
    -3.47130517e-14
    4.13121262e-06
    2.50455745e-16
    -6.42885167e-06
    -3.3790998e-16
    -1.87732253e-05
    -1.21454877e-09
    3.28141121e-08
    -1.39676907e-07
    7.17727577e-07
    -8.73882069e-06
    -4.09082408e-05
    2.46050872e-05
    -1.98261296e-07
    -2.08800622e-05
    -3.8055654e-16
    8.33424115e-05
    1.14012142e-05
    0.000108857773
    1.45326299e-15
    -0.000214745774
    5.71772492e-05
    -0.000189412431
    -2.43312796e-15
    0.000483229242
    3.98068471e-05
    -6.51025592e-05
    -1.11583569e-14
    0.00035040431
    -0.00029183511
    -0.000500038709
    -7.00033445e-14
    -1.07380118e-05
    8.03448214e-16
    1.29676128e-06
    5.78226617e-16
    -5.37223262e-05
    7.61241927e-06
    7.03100971e-06
    -0.000101688934
    -8.60946569e-05
    -3.05969007e-06
    1.21477636e-05
    3.79447735e-17
Sym=X
Ene=0.011183
Spin=Alpha
Occup=1
    1.35947371e-09
    -1.50886695e-08
    1.09709583e-07
    -3.52037909e-07
    5.4455759e-06
    2.50201206e-05
    -1.40952209e-05
    2.07639276e-06
    7.76529069e-06
    1.82302421e-15
    -4.77303261e-05
    -2.38380811e-05
    -4.07645307e-05
    1.50619795e-15
    -0.000133059958
    6.00156076e-05
    -4.49505315e-05
    2.11303379e-15
    -0.00100120147
    0.000120355842
    -0.000763024811
    -1.40314531e-14
    -2.74451088e-05
    0.000386819691
    -0.000273979089
    -5.51502277e-14
    -9.05701213e-06
    -3.5951391e-16
    7.53855898e-06
    1.39562916e-16
    -5.27203299e-06
    -5.6779752e-06
    3.48503043e-05
    0.000179016041
    0.000343315911
    2.78971321e-06
    3.29869375e-06
    4.13999676e-16
    -3.42351142e-06
    8.02193818e-07
    -4.42396715e-05
    -0.000633143594
    -2.52872632e-06
    -1.82632561e-06
    1.00993988e-15
    -0.000240170495
    -0.000100592293
    -0.000320352805
    -0.000257567425
    -9.19189648e-07
    0.00010731441
    -2.02133595e-15
    -2.18677801e-08
    -1.68651942e-07
    -7.84677578e-07
    -2.58279427e-06
    -3.65999764e-06
    3.0688208e-05
    7.25392651e-06
    -5.74122119e-05
    -2.93739278e-05
    -1.28714649e-15
    -0.000251797199
    -0.000223174035
    -9.22359378e-05
    3.10008884e-16
    0.000230582149
    8.11407916e-06
    -2.6225742e-05
    -5.30037927e-15
    0.00137994145
    0.000455984342
    -0.000210405636
    -3.2006526e-14
    0.000929211091
    4.41235707e-05
    -0.000408378218
    9.09463975e-15
    -8.50257293e-05
    -6.9378441e-16
    3.59423342e-06
    -8.57558097e-16
    -0.000121427442
    -2.07717406e-08
    -1.65924318e-07
    -7.59170976e-07
    -2.79604171e-06
    -4.88494757e-06
    3.29902933e-06
    -1.51467795e-05
    1.37094776e-05
    5.05089274e-06
    -6.16453134e-16
    -2.41953345e-06
    -2.05683164e-05
    1.32321149e-06
    1.35140784e-16
    -5.02133477e-05
    -3.97311047e-06
    6.60491216e-06
    -3.59402999e-15
    7.41485594e-05
    -5.4718949e-06
    3.50525077e-06
    1.07453797e-14
    0.000119273026
    -6.97951935e-05
    -3.34882724e-05
    -7.60214823e-15
    -4.03579245e-06
    1.80774559e-16
    4.39994462e-06
    -3.47010937e-16
    -1.8072206e-05
    -2.23301708e-08
    -2.07505084e-07
    -7.24026501e-07
    -3.39588269e-06
    2.68662129e-06
    6.07270976e-05
    -1.19061677e-05
    3.36092196e-05
    -2.38636153e-05
    -2.87324449e-15
    -0.000266352249
    0.000311942753
    -0.000172910731
    -6.07473966e-15
    0.000257896376
    -0.000207779828
    0.000183957308
    -6.43018021e-15
    0.00144075266
    -0.000800125333
    -0.000473560182
    -2.54511868e-14
    -0.000181710598
    -0.000326601777
    9.13381197e-05
    -4.82840336e-14
    0.000165400523
    -1.05041889e-15
    1.09182677e-05
    -4.70004346e-17
    -0.000140315439
    -1.58165292e-08
    -1.46508377e-07
    -5.325865e-07
    -2.5201993e-06
    4.90458694e-07
    2.09903096e-05
    -2.37982383e-05
    -1.94986618e-05
    2.01843222e-06
    -2.40594168e-15
    -3.63034932e-05
    4.85872408e-05
    1.97686667e-05
    -4.44861514e-15
    -4.97276572e-05
    -1.05960414e-05
    -2.47172062e-05
    -5.23431329e-15
    0.000222045011
    3.47484117e-05
    -1.17466941e-05
    -3.19039142e-15
    0.0011322742
    -0.000157123208
    -4.03198868e-05
    3.15721423e-15
    -5.94098961e-06
    2.72188166e-16
    4.70675992e-06
    9.15917865e-16
    -2.23126689e-05
    -0.00109718545
    -0.00835402102
    -0.040932409
    -0.138943204
    -0.335939786
    -0.144108148
    -0.467414576
    -0.000314150991
    0.000293983419
    -2.65157896e-15
    -0.00434390955
    0.000204499156
    -0.000137067455
    -2.63371655e-15
    0.000319459325
    -0.000195101312
    0.000139073617
    -7.0952729e-15
    -0.00227318401
    9.11992996e-05
    0.000901368149
    1.6288805e-14
    -0.00192484035
    -0.000451610069
    0.000465946541
    2.85166127e-14
    -2.89250141e-05
    1.34212026e-16
    -2.68535796e-05
    -2.15613142e-18
    -1.97140539e-06
    -3.88241161e-08
    -3.32901124e-07
    -1.36606056e-06
    -5.67509519e-06
    -4.70431926e-06
    2.62420055e-05
    -3.85407124e-05
    4.31420371e-06
    1.70444465e-05
    1.49191256e-15
    -4.36871574e-05
    -9.81117689e-06
    -4.79076748e-05
    5.20977074e-16
    6.07286605e-07
    0.000124930027
    1.69866442e-05
    3.43858719e-15
    0.000418880793
    0.000427473847
    0.000100573013
    1.58160708e-14
    0.000511217627
    0.000425559613
    -0.000188911451
    3.47252492e-14
    -4.14652335e-06
    -2.50262862e-16
    6.42033057e-06
    3.37867078e-16
    1.87626293e-05
    1.21545268e-09
    -3.28294383e-08
    1.39761166e-07
    -7.18067976e-07
    8.74360454e-06
    4.09316113e-05
    -2.46181247e-05
    1.90271477e-07
    2.08783684e-05
    3.80654091e-16
    -8.33952439e-05
    -1.13492172e-05
    -0.000108841687
    -1.45452553e-15
    0.000214803553
    -5.72270866e-05
    0.000189427063
    2.43461236e-15
    -0.000483652028
    -3.97536977e-05
    6.50487484e-05
    1.11591052e-14
    -0.000350597152
    0.000291673833
    0.000499786379
    7.00567144e-14
    1.07280058e-05
    -8.02995592e-16
    -1.29252806e-06
    -5.78031653e-16
    5.36980028e-05
    -7.61456685e-06
    -7.0320647e-06
    0.000101718456
    8.60876168e-05
    3.06395769e-06
    -1.21458951e-05
    -3.81522504e-17
Sym=X
Ene=0.028145
Spin=Alpha
Occup=1
    -2.96293606e-08
    -2.19234972e-07
    -1.10569293e-06
    -3.3466094e-06
    -6.33226884e-06
    3.70900132e-05
    4.08968412e-06
    4.06667362e-05
    -2.88561486e-05
    -7.62658341e-16
    -0.000226219584
    0.000342773253
    -0.000193000345
    -2.37758991e-15
    0.000301789014
    -0.000155543089
    3.03635948e-05
    -1.2215615e-15
    0.00210465013
    0.000107855233
    0.00127855091
    -1.44033154e-14
    -0.000155372194
    -0.000198584066
    0.000391589616
    -9.35575223e-14
    0.00021123048
    3.29036724e-16
    1.01872281e-06
    -1.20308773e-16
    -7.57215906e-05
    -0.000230002384
    -4.89790527e-05
    -0.000428959109
    -0.000364185441
    -7.78971801e-05
    -3.24907402e-05
    -4.85086834e-16
    -1.16993402e-05
    -0.000132505938
    0.000171216563
    0.000905613801
    1.77881265e-05
    -6.28554377e-05
    -7.85567588e-16
    1.86113829e-05
    2.06701124e-05
    0.00024331833
    0.000332653312
    5.96474456e-07
    -1.10530165e-05
    1.37271103e-15
    -1.84923431e-08
    -1.57236374e-07
    -6.25626315e-07
    -2.4513002e-06
    3.27132122e-07
    4.72581563e-05
    -1.69820873e-06
    4.71243406e-06
    5.56596587e-05
    1.08586912e-15
    -0.000255442829
    1.66428754e-06
    0.000331770177
    4.94563623e-15
    0.00022654255
    -6.23751236e-05
    -9.4483579e-05
    -2.52856583e-16
    0.000566297042
    0.000352579917
    -0.000268566689
    -2.29147731e-14
    0.000857894327
    0.000322867702
    0.000166638064
    3.65619667e-14
    4.87260979e-05
    9.87303668e-16
    1.25549761e-05
    -3.24929411e-16
    0.000202596092
    -1.14841263e-08
    -1.03627604e-07
    -3.93456882e-07
    -1.77857176e-06
    -2.34986276e-07
    1.23762389e-05
    -1.57971871e-05
    2.77913779e-06
    -1.72694767e-05
    9.34230663e-16
    -1.7420409e-05
    -2.17428068e-05
    2.7903694e-05
    3.87717061e-15
    -6.93735834e-05
    -3.5919584e-06
    1.12471956e-05
    -1.58433088e-15
    7.34204687e-05
    -1.2753997e-05
    1.61277049e-05
    1.60459952e-14
    0.000739259474
    9.72801618e-05
    -3.08532963e-05
    -2.31332242e-14
    1.9300947e-05
    -1.98039376e-16
    4.78099027e-06
    4.98893299e-16
    1.48854177e-05
    3.25143793e-09
    1.29291318e-08
    1.46417982e-07
    1.48529467e-07
    3.17112116e-06
    9.58078005e-06
    -7.68514948e-06
    -9.16959891e-06
    -4.53433714e-06
    1.27864053e-15
    5.03772191e-06
    -8.00613467e-06
    5.24689557e-05
    2.46946887e-15
    -0.000265315597
    -3.24685077e-05
    -7.37077069e-05
    1.24057124e-15
    -0.00141073472
    0.000555976573
    0.000248923748
    -1.15316815e-14
    6.17689613e-05
    0.000494425502
    -0.000180127553
    -8.5750486e-14
    -1.4630757e-05
    9.59218236e-16
    6.27754268e-06
    6.002312e-17
    2.00754904e-05
    1.72881318e-09
    8.86995942e-09
    7.45802109e-08
    1.36439509e-07
    1.41308012e-06
    4.08036133e-06
    -1.55245627e-06
    6.48337445e-07
    -9.82837438e-07
    1.14680285e-15
    -1.02371488e-05
    2.02700385e-06
    2.96931765e-06
    1.62686027e-15
    4.80902073e-05
    -2.2645755e-05
    -1.38232354e-05
    2.4352052e-15
    0.000200599893
    -0.00010317644
    -4.16252546e-05
    4.24085249e-15
    -0.000265995532
    -1.89946069e-05
    -5.90647771e-05
    1.49025963e-15
    -4.85138938e-07
    -1.46067003e-16
    -1.10629526e-06
    -6.03304393e-16
    1.57720578e-06
    0.000109473205
    0.000833491423
    0.0040841826
    0.0138623854
    0.0335270912
    0.0144146822
    0.0466118802
    1.55857331e-05
    -4.24799731e-05
    1.59493401e-15
    0.000382595765
    3.26466157e-05
    5.12756103e-05
    2.75147672e-15
    -1.33426504e-05
    1.22822147e-05
    -9.71729305e-05
    3.66617562e-15
    0.000702761344
    -6.4269069e-05
    -0.000566785868
    1.43250447e-14
    0.00063771805
    0.00042568823
    -0.000273831785
    2.54763594e-14
    -1.94313057e-05
    -1.72180274e-17
    9.88015693e-06
    -1.3480982e-16
    -9.49793844e-06
    -0.00109173067
    -0.00831242616
    -0.0407290055
    -0.138249171
    -0.334266719
    -0.143362901
    -0.46512335
    -0.000317276186
    -0.000118025026
    -8.51968259e-16
    -0.00425712482
    0.00019866604
    5.04602656e-05
    1.25250217e-15
    0.000377939769
    -0.000111164266
    -1.54920768e-05
    -4.00288064e-15
    -0.00238625939
    -0.00100517825
    -0.000509336057
    1.69986673e-14
    -0.00176934567
    -0.000454660314
    -0.000203357439
    2.4220113e-14
    -3.61451481e-05
    4.80267431e-16
    -2.06750466e-05
    -1.49596986e-16
    -2.74387108e-05