[Molden Format]
[Atoms] (Angs)
  C      1    6     -0.00714236     -1.70213747     -0.00000000
  H      2    1     -2.06882847     -1.44022412      0.00000000
  H      3    1     -0.12337987     -2.77567521      0.00000000
  H      4    1      0.04651892      1.98813947     -0.00000000
  C      5    6     -1.21953563      0.40211669      0.00000000
  O      6    8     -2.25921553      1.03043814      0.00000000
  C      7    6      1.28797806      0.34644937     -0.00000000
  O      8    8      2.31273661      1.00537216     -0.00000000
  N      9    7      0.03446295      0.97739857     -0.00000000
  N     10    7     -1.17287765     -0.98229824      0.00000000
  C     11    6      1.20107039     -1.10433419     -0.00000000
  H     12    1      2.11220096     -1.67699125     -0.00000000
[GTO]
1    0
S    1    1.000000
   4.56324000E+03    1.96665000E-03 
S    1    1.000000
   6.82024000E+02    1.52306000E-02 
S    1    1.000000
   1.54973000E+02    7.61269000E-02 
S    1    1.000000
   4.44553000E+01    2.60801000E-01 
S    1    1.000000
   1.30290000E+01    6.16462000E-01 
S    1    1.000000
   1.82773000E+00    2.21006000E-01 
SP   3    1.000000
   2.09642000E+01    1.14660000E-01   4.02487000E-02 
   4.80331000E+00    9.19999000E-01   2.37594000E-01 
   1.45933000E+00   -3.03068000E-03   8.15854000E-01 
SP   1    1.000000
   4.83456000E-01    1.00000000E+00   1.00000000E+00 
SP   1    1.000000
   1.45585000E-01    1.00000000E+00   1.00000000E+00 
SP   1    1.000000
   4.38000000E-02    1.00000000E+00   1.00000000E+00 
SP   1    1.000000
   1.31927711E-02    1.00000000E+00   1.00000000E+00 
D    1    1.000000
   6.26000000E-01    1.00000000E+00 

2    0
S    3    1.000000
   3.38650000E+01    2.54938000E-02 
   5.09479000E+00    1.90373000E-01 
   1.15879000E+00    8.52161000E-01 
S    1    1.000000
   3.25840000E-01    1.00000000E+00 
S    1    1.000000
   1.02741000E-01    1.00000000E+00 
S    1    1.000000
   3.60000000E-02    1.00000000E+00 
P    1    1.000000
   7.50000000E-01    1.00000000E+00 

3    0
S    3    1.000000
   3.38650000E+01    2.54938000E-02 
   5.09479000E+00    1.90373000E-01 
   1.15879000E+00    8.52161000E-01 
S    1    1.000000
   3.25840000E-01    1.00000000E+00 
S    1    1.000000
   1.02741000E-01    1.00000000E+00 
S    1    1.000000
   3.60000000E-02    1.00000000E+00 
P    1    1.000000
   7.50000000E-01    1.00000000E+00 

4    0
S    3    1.000000
   3.38650000E+01    2.54938000E-02 
   5.09479000E+00    1.90373000E-01 
   1.15879000E+00    8.52161000E-01 
S    1    1.000000
   3.25840000E-01    1.00000000E+00 
S    1    1.000000
   1.02741000E-01    1.00000000E+00 
S    1    1.000000
   3.60000000E-02    1.00000000E+00 
P    1    1.000000
   7.50000000E-01    1.00000000E+00 

5    0
S    1    1.000000
   4.56324000E+03    1.96665000E-03 
S    1    1.000000
   6.82024000E+02    1.52306000E-02 
S    1    1.000000
   1.54973000E+02    7.61269000E-02 
S    1    1.000000
   4.44553000E+01    2.60801000E-01 
S    1    1.000000
   1.30290000E+01    6.16462000E-01 
S    1    1.000000
   1.82773000E+00    2.21006000E-01 
SP   3    1.000000
   2.09642000E+01    1.14660000E-01   4.02487000E-02 
   4.80331000E+00    9.19999000E-01   2.37594000E-01 
   1.45933000E+00   -3.03068000E-03   8.15854000E-01 
SP   1    1.000000
   4.83456000E-01    1.00000000E+00   1.00000000E+00 
SP   1    1.000000
   1.45585000E-01    1.00000000E+00   1.00000000E+00 
SP   1    1.000000
   4.38000000E-02    1.00000000E+00   1.00000000E+00 
SP   1    1.000000
   1.31927711E-02    1.00000000E+00   1.00000000E+00 
D    1    1.000000
   6.26000000E-01    1.00000000E+00 

6    0
S    1    1.000000
   8.58850000E+03    1.89515000E-03 
S    1    1.000000
   1.29723000E+03    1.43859000E-02 
S    1    1.000000
   2.99296000E+02    7.07320000E-02 
S    1    1.000000
   8.73771000E+01    2.40001000E-01 
S    1    1.000000
   2.56789000E+01    5.94797000E-01 
S    1    1.000000
   3.74004000E+00    2.80802000E-01 
SP   3    1.000000
   4.21175000E+01    1.13889000E-01   3.65114000E-02 
   9.62837000E+00    9.20811000E-01   2.37153000E-01 
   2.85332000E+00   -3.27447000E-03   8.19702000E-01 
SP   1    1.000000
   9.05661000E-01    1.00000000E+00   1.00000000E+00 
SP   1    1.000000
   2.55611000E-01    1.00000000E+00   1.00000000E+00 
SP   1    1.000000
   8.45000000E-02    1.00000000E+00   1.00000000E+00 
SP   1    1.000000
   2.54518072E-02    1.00000000E+00   1.00000000E+00 
D    1    1.000000
   1.29200000E+00    1.00000000E+00 

7    0
S    1    1.000000
   4.56324000E+03    1.96665000E-03 
S    1    1.000000
   6.82024000E+02    1.52306000E-02 
S    1    1.000000
   1.54973000E+02    7.61269000E-02 
S    1    1.000000
   4.44553000E+01    2.60801000E-01 
S    1    1.000000
   1.30290000E+01    6.16462000E-01 
S    1    1.000000
   1.82773000E+00    2.21006000E-01 
SP   3    1.000000
   2.09642000E+01    1.14660000E-01   4.02487000E-02 
   4.80331000E+00    9.19999000E-01   2.37594000E-01 
   1.45933000E+00   -3.03068000E-03   8.15854000E-01 
SP   1    1.000000
   4.83456000E-01    1.00000000E+00   1.00000000E+00 
SP   1    1.000000
   1.45585000E-01    1.00000000E+00   1.00000000E+00 
SP   1    1.000000
   4.38000000E-02    1.00000000E+00   1.00000000E+00 
SP   1    1.000000
   1.31927711E-02    1.00000000E+00   1.00000000E+00 
D    1    1.000000
   6.26000000E-01    1.00000000E+00 

8    0
S    1    1.000000
   8.58850000E+03    1.89515000E-03 
S    1    1.000000
   1.29723000E+03    1.43859000E-02 
S    1    1.000000
   2.99296000E+02    7.07320000E-02 
S    1    1.000000
   8.73771000E+01    2.40001000E-01 
S    1    1.000000
   2.56789000E+01    5.94797000E-01 
S    1    1.000000
   3.74004000E+00    2.80802000E-01 
SP   3    1.000000
   4.21175000E+01    1.13889000E-01   3.65114000E-02 
   9.62837000E+00    9.20811000E-01   2.37153000E-01 
   2.85332000E+00   -3.27447000E-03   8.19702000E-01 
SP   1    1.000000
   9.05661000E-01    1.00000000E+00   1.00000000E+00 
SP   1    1.000000
   2.55611000E-01    1.00000000E+00   1.00000000E+00 
SP   1    1.000000
   8.45000000E-02    1.00000000E+00   1.00000000E+00 
SP   1    1.000000
   2.54518072E-02    1.00000000E+00   1.00000000E+00 
D    1    1.000000
   1.29200000E+00    1.00000000E+00 

9    0
S    1    1.000000
   6.29348000E+03    1.96979000E-03 
S    1    1.000000
   9.49044000E+02    1.49613000E-02 
S    1    1.000000
   2.18776000E+02    7.35006000E-02 
S    1    1.000000
   6.36916000E+01    2.48937000E-01 
S    1    1.000000
   1.88282000E+01    6.02460000E-01 
S    1    1.000000
   2.72023000E+00    2.56202000E-01 
SP   3    1.000000
   3.06331000E+01    1.11906000E-01   3.83119000E-02 
   7.02614000E+00    9.21666000E-01   2.37403000E-01 
   2.11205000E+00   -2.56919000E-03   8.17592000E-01 
SP   1    1.000000
   6.84009000E-01    1.00000000E+00   1.00000000E+00 
SP   1    1.000000
   2.00878000E-01    1.00000000E+00   1.00000000E+00 
SP   1    1.000000
   6.39000000E-02    1.00000000E+00   1.00000000E+00 
SP   1    1.000000
   1.92469880E-02    1.00000000E+00   1.00000000E+00 
D    1    1.000000
   9.13000000E-01    1.00000000E+00 

10    0
S    1    1.000000
   6.29348000E+03    1.96979000E-03 
S    1    1.000000
   9.49044000E+02    1.49613000E-02 
S    1    1.000000
   2.18776000E+02    7.35006000E-02 
S    1    1.000000
   6.36916000E+01    2.48937000E-01 
S    1    1.000000
   1.88282000E+01    6.02460000E-01 
S    1    1.000000
   2.72023000E+00    2.56202000E-01 
SP   3    1.000000
   3.06331000E+01    1.11906000E-01   3.83119000E-02 
   7.02614000E+00    9.21666000E-01   2.37403000E-01 
   2.11205000E+00   -2.56919000E-03   8.17592000E-01 
SP   1    1.000000
   6.84009000E-01    1.00000000E+00   1.00000000E+00 
SP   1    1.000000
   2.00878000E-01    1.00000000E+00   1.00000000E+00 
SP   1    1.000000
   6.39000000E-02    1.00000000E+00   1.00000000E+00 
SP   1    1.000000
   1.92469880E-02    1.00000000E+00   1.00000000E+00 
D    1    1.000000
   9.13000000E-01    1.00000000E+00 

11    0
S    1    1.000000
   4.56324000E+03    1.96665000E-03 
S    1    1.000000
   6.82024000E+02    1.52306000E-02 
S    1    1.000000
   1.54973000E+02    7.61269000E-02 
S    1    1.000000
   4.44553000E+01    2.60801000E-01 
S    1    1.000000
   1.30290000E+01    6.16462000E-01 
S    1    1.000000
   1.82773000E+00    2.21006000E-01 
SP   3    1.000000
   2.09642000E+01    1.14660000E-01   4.02487000E-02 
   4.80331000E+00    9.19999000E-01   2.37594000E-01 
   1.45933000E+00   -3.03068000E-03   8.15854000E-01 
SP   1    1.000000
   4.83456000E-01    1.00000000E+00   1.00000000E+00 
SP   1    1.000000
   1.45585000E-01    1.00000000E+00   1.00000000E+00 
SP   1    1.000000
   4.38000000E-02    1.00000000E+00   1.00000000E+00 
SP   1    1.000000
   1.31927711E-02    1.00000000E+00   1.00000000E+00 
D    1    1.000000
   6.26000000E-01    1.00000000E+00 

12    0
S    3    1.000000
   3.38650000E+01    2.54938000E-02 
   5.09479000E+00    1.90373000E-01 
   1.15879000E+00    8.52161000E-01 
S    1    1.000000
   3.25840000E-01    1.00000000E+00 
S    1    1.000000
   1.02741000E-01    1.00000000E+00 
S    1    1.000000
   3.60000000E-02    1.00000000E+00 
P    1    1.000000
   7.50000000E-01    1.00000000E+00 

[MO]
Sym=X
Ene=0.011183
Spin=Alpha
Occup=1
1    -1.50886695e-08
2    1.09709583e-07
3    -3.52037909e-07
4    5.4455759e-06
5    2.50201206e-05
6    -1.40952209e-05
7    2.07639276e-06
8    7.76529069e-06
9    1.82302421e-15
10    -4.77303261e-05
11    -2.38380811e-05
12    -4.07645307e-05
13    1.50619795e-15
14    -0.000133059958
15    6.00156076e-05
16    -4.49505315e-05
17    2.11303379e-15
18    -0.00100120147
19    0.000120355842
20    -0.000763024811
21    -1.40314531e-14
22    -2.74451088e-05
23    0.000386819691
24    -0.000273979089
25    -5.51502277e-14
26    -9.05701213e-06
27    -3.5951391e-16
28    7.53855898e-06
29    1.39562916e-16
30    -5.27203299e-06
31    -5.6779752e-06
32    3.48503043e-05
33    0.000179016041
34    0.000343315911
35    2.78971321e-06
36    3.29869375e-06
37    4.13999676e-16
38    -3.42351142e-06
39    8.02193818e-07
40    -4.42396715e-05
41    -0.000633143594
42    -2.52872632e-06
43    -1.82632561e-06
44    1.00993988e-15
45    -0.000240170495
46    -0.000100592293
47    -0.000320352805
48    -0.000257567425
49    -9.19189648e-07
50    0.00010731441
51    -2.02133595e-15
52    -2.18677801e-08
53    -1.68651942e-07
54    -7.84677578e-07
55    -2.58279427e-06
56    -3.65999764e-06
57    3.0688208e-05
58    7.25392651e-06
59    -5.74122119e-05
60    -2.93739278e-05
61    -1.28714649e-15
62    -0.000251797199
63    -0.000223174035
64    -9.22359378e-05
65    3.10008884e-16
66    0.000230582149
67    8.11407916e-06
68    -2.6225742e-05
69    -5.30037927e-15
70    0.00137994145
71    0.000455984342
72    -0.000210405636
73    -3.2006526e-14
74    0.000929211091
75    4.41235707e-05
76    -0.000408378218
77    9.09463975e-15
78    -8.50257293e-05
79    -6.9378441e-16
80    3.59423342e-06
81    -8.57558097e-16
82    -0.000121427442
83    -2.07717406e-08
84    -1.65924318e-07
85    -7.59170976e-07
86    -2.79604171e-06
87    -4.88494757e-06
88    3.29902933e-06
89    -1.51467795e-05
90    1.37094776e-05
91    5.05089274e-06
92    -6.16453134e-16
93    -2.41953345e-06
94    -2.05683164e-05
95    1.32321149e-06
96    1.35140784e-16
97    -5.02133477e-05
98    -3.97311047e-06
99    6.60491216e-06
100    -3.59402999e-15
101    7.41485594e-05
102    -5.4718949e-06
103    3.50525077e-06
104    1.07453797e-14
105    0.000119273026
106    -6.97951935e-05
107    -3.34882724e-05
108    -7.60214823e-15
109    -4.03579245e-06
110    1.80774559e-16
111    4.39994462e-06
112    -3.47010937e-16
113    -1.8072206e-05
114    -2.23301708e-08
115    -2.07505084e-07
116    -7.24026501e-07
117    -3.39588269e-06
118    2.68662129e-06
119    6.07270976e-05
120    -1.19061677e-05
121    3.36092196e-05
122    -2.38636153e-05
123    -2.87324449e-15
124    -0.000266352249
125    0.000311942753
126    -0.000172910731
127    -6.07473966e-15
128    0.000257896376
129    -0.000207779828
130    0.000183957308
131    -6.43018021e-15
132    0.00144075266
133    -0.000800125333
134    -0.000473560182
135    -2.54511868e-14
136    -0.000181710598
137    -0.000326601777
138    9.13381197e-05
139    -4.82840336e-14
140    0.000165400523
141    -1.05041889e-15
142    1.09182677e-05
143    -4.70004346e-17
144    -0.000140315439
145    -1.58165292e-08
146    -1.46508377e-07
147    -5.325865e-07
148    -2.5201993e-06
149    4.90458694e-07
150    2.09903096e-05
151    -2.37982383e-05
152    -1.94986618e-05
153    2.01843222e-06
154    -2.40594168e-15
155    -3.63034932e-05
156    4.85872408e-05
157    1.97686667e-05
158    -4.44861514e-15
159    -4.97276572e-05
160    -1.05960414e-05
161    -2.47172062e-05
162    -5.23431329e-15
163    0.000222045011
164    3.47484117e-05
165    -1.17466941e-05
166    -3.19039142e-15
167    0.0011322742
168    -0.000157123208
169    -4.03198868e-05
170    3.15721423e-15
171    -5.94098961e-06
172    2.72188166e-16
173    4.70675992e-06
174    9.15917865e-16
175    -2.23126689e-05
176    -0.00109718545
177    -0.00835402102
178    -0.040932409
179    -0.138943204
180    -0.335939786
181    -0.144108148
182    -0.467414576
183    -0.000314150991
184    0.000293983419
185    -2.65157896e-15
186    -0.00434390955
187    0.000204499156
188    -0.000137067455
189    -2.63371655e-15
190    0.000319459325
191    -0.000195101312
192    0.000139073617
193    -7.0952729e-15
194    -0.00227318401
195    9.11992996e-05
196    0.000901368149
197    1.6288805e-14
198    -0.00192484035
199    -0.000451610069
200    0.000465946541
201    2.85166127e-14
202    -2.89250141e-05
203    1.34212026e-16
204    -2.68535796e-05
205    -2.15613142e-18
206    -1.97140539e-06
207    -3.88241161e-08
208    -3.32901124e-07
209    -1.36606056e-06
210    -5.67509519e-06
211    -4.70431926e-06
212    2.62420055e-05
213    -3.85407124e-05
214    4.31420371e-06
215    1.70444465e-05
216    1.49191256e-15
217    -4.36871574e-05
218    -9.81117689e-06
219    -4.79076748e-05
220    5.20977074e-16
221    6.07286605e-07
222    0.000124930027
223    1.69866442e-05
224    3.43858719e-15
225    0.000418880793
226    0.000427473847
227    0.000100573013
228    1.58160708e-14
229    0.000511217627
230    0.000425559613
231    -0.000188911451
232    3.47252492e-14
233    -4.14652335e-06
234    -2.50262862e-16
235    6.42033057e-06
236    3.37867078e-16
237    1.87626293e-05
238    1.21545268e-09
239    -3.28294383e-08
240    1.39761166e-07
241    -7.18067976e-07
242    8.74360454e-06
243    4.09316113e-05
244    -2.46181247e-05
245    1.90271477e-07
246    2.08783684e-05
247    3.80654091e-16
248    -8.33952439e-05
249    -1.13492172e-05
250    -0.000108841687
251    -1.45452553e-15
252    0.000214803553
253    -5.72270866e-05
254    0.000189427063
255    2.43461236e-15
256    -0.000483652028
257    -3.97536977e-05
258    6.50487484e-05
259    1.11591052e-14
260    -0.000350597152
261    0.000291673833
262    0.000499786379
263    7.00567144e-14
264    1.07280058e-05
265    -8.02995592e-16
266    -1.29252806e-06
267    -5.78031653e-16
268    5.36980028e-05
269    -7.61456685e-06
270    -7.0320647e-06
271    0.000101718456
272    8.60876168e-05
273    3.06395769e-06
274    -1.21458951e-05
275    -3.81522504e-17
[5D]