[Molden Format]
[Atoms] (Angs)
  C      1    6     -0.00714236     -1.70213747     -0.00000000
  H      2    1     -2.06882847     -1.44022412      0.00000000
  H      3    1     -0.12337987     -2.77567521      0.00000000
  H      4    1      0.04651892      1.98813947     -0.00000000
  C      5    6     -1.21953563      0.40211669      0.00000000
  O      6    8     -2.25921553      1.03043814      0.00000000
  C      7    6      1.28797806      0.34644937     -0.00000000
  O      8    8      2.31273661      1.00537216     -0.00000000
  N      9    7      0.03446295      0.97739857     -0.00000000
  N     10    7     -1.17287765     -0.98229824      0.00000000
  C     11    6      1.20107039     -1.10433419     -0.00000000
  H     12    1      2.11220096     -1.67699125     -0.00000000
[GTO]
1    0
S    1    1.000000
   4.56324000E+03    1.96665000E-03 
S    1    1.000000
   6.82024000E+02    1.52306000E-02 
S    1    1.000000
   1.54973000E+02    7.61269000E-02 
S    1    1.000000
   4.44553000E+01    2.60801000E-01 
S    1    1.000000
   1.30290000E+01    6.16462000E-01 
S    1    1.000000
   1.82773000E+00    2.21006000E-01 
SP   3    1.000000
   2.09642000E+01    1.14660000E-01   4.02487000E-02 
   4.80331000E+00    9.19999000E-01   2.37594000E-01 
   1.45933000E+00   -3.03068000E-03   8.15854000E-01 
SP   1    1.000000
   4.83456000E-01    1.00000000E+00   1.00000000E+00 
SP   1    1.000000
   1.45585000E-01    1.00000000E+00   1.00000000E+00 
SP   1    1.000000
   4.38000000E-02    1.00000000E+00   1.00000000E+00 
SP   1    1.000000
   1.31927711E-02    1.00000000E+00   1.00000000E+00 
D    1    1.000000
   6.26000000E-01    1.00000000E+00 

2    0
S    3    1.000000
   3.38650000E+01    2.54938000E-02 
   5.09479000E+00    1.90373000E-01 
   1.15879000E+00    8.52161000E-01 
S    1    1.000000
   3.25840000E-01    1.00000000E+00 
S    1    1.000000
   1.02741000E-01    1.00000000E+00 
S    1    1.000000
   3.60000000E-02    1.00000000E+00 
P    1    1.000000
   7.50000000E-01    1.00000000E+00 

3    0
S    3    1.000000
   3.38650000E+01    2.54938000E-02 
   5.09479000E+00    1.90373000E-01 
   1.15879000E+00    8.52161000E-01 
S    1    1.000000
   3.25840000E-01    1.00000000E+00 
S    1    1.000000
   1.02741000E-01    1.00000000E+00 
S    1    1.000000
   3.60000000E-02    1.00000000E+00 
P    1    1.000000
   7.50000000E-01    1.00000000E+00 

4    0
S    3    1.000000
   3.38650000E+01    2.54938000E-02 
   5.09479000E+00    1.90373000E-01 
   1.15879000E+00    8.52161000E-01 
S    1    1.000000
   3.25840000E-01    1.00000000E+00 
S    1    1.000000
   1.02741000E-01    1.00000000E+00 
S    1    1.000000
   3.60000000E-02    1.00000000E+00 
P    1    1.000000
   7.50000000E-01    1.00000000E+00 

5    0
S    1    1.000000
   4.56324000E+03    1.96665000E-03 
S    1    1.000000
   6.82024000E+02    1.52306000E-02 
S    1    1.000000
   1.54973000E+02    7.61269000E-02 
S    1    1.000000
   4.44553000E+01    2.60801000E-01 
S    1    1.000000
   1.30290000E+01    6.16462000E-01 
S    1    1.000000
   1.82773000E+00    2.21006000E-01 
SP   3    1.000000
   2.09642000E+01    1.14660000E-01   4.02487000E-02 
   4.80331000E+00    9.19999000E-01   2.37594000E-01 
   1.45933000E+00   -3.03068000E-03   8.15854000E-01 
SP   1    1.000000
   4.83456000E-01    1.00000000E+00   1.00000000E+00 
SP   1    1.000000
   1.45585000E-01    1.00000000E+00   1.00000000E+00 
SP   1    1.000000
   4.38000000E-02    1.00000000E+00   1.00000000E+00 
SP   1    1.000000
   1.31927711E-02    1.00000000E+00   1.00000000E+00 
D    1    1.000000
   6.26000000E-01    1.00000000E+00 

6    0
S    1    1.000000
   8.58850000E+03    1.89515000E-03 
S    1    1.000000
   1.29723000E+03    1.43859000E-02 
S    1    1.000000
   2.99296000E+02    7.07320000E-02 
S    1    1.000000
   8.73771000E+01    2.40001000E-01 
S    1    1.000000
   2.56789000E+01    5.94797000E-01 
S    1    1.000000
   3.74004000E+00    2.80802000E-01 
SP   3    1.000000
   4.21175000E+01    1.13889000E-01   3.65114000E-02 
   9.62837000E+00    9.20811000E-01   2.37153000E-01 
   2.85332000E+00   -3.27447000E-03   8.19702000E-01 
SP   1    1.000000
   9.05661000E-01    1.00000000E+00   1.00000000E+00 
SP   1    1.000000
   2.55611000E-01    1.00000000E+00   1.00000000E+00 
SP   1    1.000000
   8.45000000E-02    1.00000000E+00   1.00000000E+00 
SP   1    1.000000
   2.54518072E-02    1.00000000E+00   1.00000000E+00 
D    1    1.000000
   1.29200000E+00    1.00000000E+00 

7    0
S    1    1.000000
   4.56324000E+03    1.96665000E-03 
S    1    1.000000
   6.82024000E+02    1.52306000E-02 
S    1    1.000000
   1.54973000E+02    7.61269000E-02 
S    1    1.000000
   4.44553000E+01    2.60801000E-01 
S    1    1.000000
   1.30290000E+01    6.16462000E-01 
S    1    1.000000
   1.82773000E+00    2.21006000E-01 
SP   3    1.000000
   2.09642000E+01    1.14660000E-01   4.02487000E-02 
   4.80331000E+00    9.19999000E-01   2.37594000E-01 
   1.45933000E+00   -3.03068000E-03   8.15854000E-01 
SP   1    1.000000
   4.83456000E-01    1.00000000E+00   1.00000000E+00 
SP   1    1.000000
   1.45585000E-01    1.00000000E+00   1.00000000E+00 
SP   1    1.000000
   4.38000000E-02    1.00000000E+00   1.00000000E+00 
SP   1    1.000000
   1.31927711E-02    1.00000000E+00   1.00000000E+00 
D    1    1.000000
   6.26000000E-01    1.00000000E+00 

8    0
S    1    1.000000
   8.58850000E+03    1.89515000E-03 
S    1    1.000000
   1.29723000E+03    1.43859000E-02 
S    1    1.000000
   2.99296000E+02    7.07320000E-02 
S    1    1.000000
   8.73771000E+01    2.40001000E-01 
S    1    1.000000
   2.56789000E+01    5.94797000E-01 
S    1    1.000000
   3.74004000E+00    2.80802000E-01 
SP   3    1.000000
   4.21175000E+01    1.13889000E-01   3.65114000E-02 
   9.62837000E+00    9.20811000E-01   2.37153000E-01 
   2.85332000E+00   -3.27447000E-03   8.19702000E-01 
SP   1    1.000000
   9.05661000E-01    1.00000000E+00   1.00000000E+00 
SP   1    1.000000
   2.55611000E-01    1.00000000E+00   1.00000000E+00 
SP   1    1.000000
   8.45000000E-02    1.00000000E+00   1.00000000E+00 
SP   1    1.000000
   2.54518072E-02    1.00000000E+00   1.00000000E+00 
D    1    1.000000
   1.29200000E+00    1.00000000E+00 

9    0
S    1    1.000000
   6.29348000E+03    1.96979000E-03 
S    1    1.000000
   9.49044000E+02    1.49613000E-02 
S    1    1.000000
   2.18776000E+02    7.35006000E-02 
S    1    1.000000
   6.36916000E+01    2.48937000E-01 
S    1    1.000000
   1.88282000E+01    6.02460000E-01 
S    1    1.000000
   2.72023000E+00    2.56202000E-01 
SP   3    1.000000
   3.06331000E+01    1.11906000E-01   3.83119000E-02 
   7.02614000E+00    9.21666000E-01   2.37403000E-01 
   2.11205000E+00   -2.56919000E-03   8.17592000E-01 
SP   1    1.000000
   6.84009000E-01    1.00000000E+00   1.00000000E+00 
SP   1    1.000000
   2.00878000E-01    1.00000000E+00   1.00000000E+00 
SP   1    1.000000
   6.39000000E-02    1.00000000E+00   1.00000000E+00 
SP   1    1.000000
   1.92469880E-02    1.00000000E+00   1.00000000E+00 
D    1    1.000000
   9.13000000E-01    1.00000000E+00 

10    0
S    1    1.000000
   6.29348000E+03    1.96979000E-03 
S    1    1.000000
   9.49044000E+02    1.49613000E-02 
S    1    1.000000
   2.18776000E+02    7.35006000E-02 
S    1    1.000000
   6.36916000E+01    2.48937000E-01 
S    1    1.000000
   1.88282000E+01    6.02460000E-01 
S    1    1.000000
   2.72023000E+00    2.56202000E-01 
SP   3    1.000000
   3.06331000E+01    1.11906000E-01   3.83119000E-02 
   7.02614000E+00    9.21666000E-01   2.37403000E-01 
   2.11205000E+00   -2.56919000E-03   8.17592000E-01 
SP   1    1.000000
   6.84009000E-01    1.00000000E+00   1.00000000E+00 
SP   1    1.000000
   2.00878000E-01    1.00000000E+00   1.00000000E+00 
SP   1    1.000000
   6.39000000E-02    1.00000000E+00   1.00000000E+00 
SP   1    1.000000
   1.92469880E-02    1.00000000E+00   1.00000000E+00 
D    1    1.000000
   9.13000000E-01    1.00000000E+00 

11    0
S    1    1.000000
   4.56324000E+03    1.96665000E-03 
S    1    1.000000
   6.82024000E+02    1.52306000E-02 
S    1    1.000000
   1.54973000E+02    7.61269000E-02 
S    1    1.000000
   4.44553000E+01    2.60801000E-01 
S    1    1.000000
   1.30290000E+01    6.16462000E-01 
S    1    1.000000
   1.82773000E+00    2.21006000E-01 
SP   3    1.000000
   2.09642000E+01    1.14660000E-01   4.02487000E-02 
   4.80331000E+00    9.19999000E-01   2.37594000E-01 
   1.45933000E+00   -3.03068000E-03   8.15854000E-01 
SP   1    1.000000
   4.83456000E-01    1.00000000E+00   1.00000000E+00 
SP   1    1.000000
   1.45585000E-01    1.00000000E+00   1.00000000E+00 
SP   1    1.000000
   4.38000000E-02    1.00000000E+00   1.00000000E+00 
SP   1    1.000000
   1.31927711E-02    1.00000000E+00   1.00000000E+00 
D    1    1.000000
   6.26000000E-01    1.00000000E+00 

12    0
S    3    1.000000
   3.38650000E+01    2.54938000E-02 
   5.09479000E+00    1.90373000E-01 
   1.15879000E+00    8.52161000E-01 
S    1    1.000000
   3.25840000E-01    1.00000000E+00 
S    1    1.000000
   1.02741000E-01    1.00000000E+00 
S    1    1.000000
   3.60000000E-02    1.00000000E+00 
P    1    1.000000
   7.50000000E-01    1.00000000E+00 

[MO]
Sym=X
Ene=0.032807
Spin=Alpha
Occup=1
1    -2.9465647e-08
2    -2.22356608e-07
3    -1.08942166e-06
4    -3.41523182e-06
5    -5.40905929e-06
6    4.14893141e-05
7    1.67078284e-06
8    4.11213082e-05
9    -2.75868442e-05
10    -4.50360351e-16
11    -0.000234982023
12    0.00033948169
13    -0.000200483596
14    -2.1237273e-15
15    0.000279578633
16    -0.000145572668
17    2.26896706e-05
18    -8.60397249e-16
19    0.00193714446
20    0.000128850814
21    0.00115011772
22    -1.68552911e-14
23    -0.000160470082
24    -0.00013240597
25    0.000345314498
26    -1.03282666e-13
27    0.00021017271
28    2.67873709e-16
29    2.32008699e-06
30    -9.65503812e-17
31    -7.68102586e-05
32    -0.000231528162
33    -4.30907284e-05
34    -0.000399134897
35    -0.000305896762
36    -7.76019027e-05
37    -3.19997084e-05
38    -4.14906932e-16
39    -1.23170787e-05
40    -0.00013268316
41    0.00016400074
42    0.000798673346
43    1.73947679e-05
44    -6.33197468e-05
45    -6.13421087e-16
46    -2.27267685e-05
47    3.38699644e-06
48    0.000188699065
49    0.0002890657
50    4.39521537e-07
51    7.41140193e-06
52    1.02769287e-15
53    -2.23042988e-08
54    -1.86670417e-07
55    -7.62319683e-07
56    -2.90216925e-06
57    -3.02743174e-07
58    5.26580674e-05
59    -4.52391422e-07
60    -5.16879917e-06
61    5.07309271e-05
62    8.66675633e-16
63    -0.000299435586
64    -3.67867547e-05
65    0.000316667823
66    5.01083273e-15
67    0.00026680934
68    -6.11252151e-05
69    -9.92278423e-05
70    -1.16673489e-15
71    0.000805407425
72    0.000431991081
73    -0.000305463844
74    -2.84841964e-14
75    0.0010200439
76    0.000331238461
77    9.6668822e-05
78    3.82159332e-14
79    3.41911742e-05
80    8.7011144e-16
81    1.32039885e-05
82    -4.73467116e-16
83    0.000182156102
84    -1.2759402e-08
85    -1.14730684e-07
86    -4.38250995e-07
87    -1.96865819e-06
88    -3.44831048e-07
89    1.3321365e-05
90    -1.73921245e-05
91    5.15169953e-06
92    -1.64424425e-05
93    8.30240907e-16
94    -1.7867814e-05
95    -2.53403389e-05
96    2.81991256e-05
97    3.90969117e-15
98    -7.81921377e-05
99    -4.28417109e-06
100    1.24115169e-05
101    -2.20735957e-15
102    8.6377656e-05
103    -1.37268641e-05
104    1.67699366e-05
105    1.79356728e-14
106    0.000761582669
107    8.54881663e-05
108    -3.66983122e-05
109    -2.44981267e-14
110    1.8651711e-05
111    -1.67362932e-16
112    5.55030225e-06
113    4.40290509e-16
114    1.18068058e-05
115    -5.88439615e-10
116    -2.27944538e-08
117    2.20124604e-08
118    -4.36250475e-07
119    3.64154784e-06
120    2.00666959e-05
121    -9.7548922e-06
122    -3.40036203e-06
123    -8.65690643e-06
124    7.86604258e-16
125    -4.08425404e-05
126    4.57253935e-05
127    2.28015178e-05
128    1.4286323e-15
129    -0.000221511489
130    -6.83461401e-05
131    -4.21855414e-05
132    1.35554939e-16
133    -0.00116585307
134    0.000419430605
135    0.000167918277
136    -1.59445007e-14
137    3.06056343e-05
138    0.000439326686
139    -0.00016481694
140    -9.4274001e-14
141    1.38345235e-05
142    7.8050932e-16
143    8.17349346e-06
144    5.20651986e-17
145    -4.05332713e-06
146    1.37492577e-09
147    1.65483159e-09
148    7.12873906e-08
149    3.00656798e-09
150    2.24463347e-06
151    8.06163158e-06
152    -4.58870142e-06
153    -2.71364374e-06
154    -6.3980009e-07
155    7.34975167e-16
156    -1.6503679e-05
157    1.0405446e-05
158    6.38375862e-06
159    8.6420642e-16
160    3.96326943e-05
161    -2.45254484e-05
162    -1.81150691e-05
163    1.53909574e-15
164    0.000239342284
165    -9.74351166e-05
166    -4.37486074e-05
167    3.70121855e-15
168    -7.15237929e-05
169    -4.6114621e-05
170    -6.61534395e-05
171    2.03777498e-15
172    -1.51092572e-06
173    -9.95149556e-17
174    -2.98197721e-07
175    -4.46922599e-16
176    -2.26410096e-06
177    -7.93162834e-05
178    -0.000603960623
179    -0.00295893698
180    -0.010045167
181    -0.0242770648
182    -0.0103814993
183    -0.0338148373
184    -3.85068366e-05
185    8.07360096e-06
186    1.14184945e-15
187    -0.00036496889
188    6.79605396e-05
189    2.77802713e-05
190    2.30422442e-15
191    4.16706576e-05
192    -2.13057397e-05
193    -7.34418453e-05
194    2.45235383e-15
195    0.000312755019
196    -4.87091357e-05
197    -0.000412824724
198    1.71657714e-14
199    0.000307569156
200    0.000348886043
201    -0.000194199079
202    3.04505463e-14
203    -2.44614971e-05
204    5.86572806e-18
205    5.27664409e-06
206    -1.35505172e-16
207    -9.8600431e-06
208    -0.00109433591
209    -0.00833226887
210    -0.0408261846
211    -0.138579211
212    -0.335063156
213    -0.143699614
214    -0.466237083
215    -0.000317287993
216    -0.000115369147
217    -5.96929617e-16
218    -0.00427478507
219    0.000197448347
220    4.23257737e-05
221    1.34524874e-15
222    0.000378944271
223    -8.99025457e-05
224    -1.26020408e-05
225    -3.41991642e-15
226    -0.00231976205
227    -0.0009339146
228    -0.000493219162
229    1.97643168e-14
230    -0.00168547654
231    -0.000382415129
232    -0.000236393814
233    3.02610292e-14
234    -3.69457051e-05
235    4.38289744e-16
236    -1.96180119e-05
237    -9.17383941e-17
238    -2.42711935e-05
239    2.22190863e-09
240    -3.7814616e-08
241    2.07433367e-07
242    -8.40282268e-07
243    1.17767666e-05
244    5.73534121e-05
245    -3.20961062e-05
246    -1.88908694e-05
247    -2.95235469e-06
248    2.08546377e-16
249    -0.000129819611
250    0.00012113759
251    3.26190207e-05
252    -3.16733612e-15
253    0.000171413263
254    -0.000135444753
255    5.20733029e-05
256    3.4758929e-15
257    -0.000960997472
258    0.000129147944
259    -0.000101447432
260    2.91643215e-15
261    -0.000464910413
262    -0.000353885239
263    -0.000561585488
264    1.26089526e-13
265    -2.12605139e-05
266    9.82547083e-16
267    9.75260918e-06
268    4.10797093e-16
269    -5.44414788e-05
270    -5.48892668e-06
271    6.57956374e-07
272    7.90109184e-05
273    -2.69737903e-05
274    9.50956474e-06
275    3.92650789e-06
276    -5.29635636e-16
[5D]