[Molden Format]
[Atoms] (Angs)
  C      1    6     -0.00714236     -1.70213747     -0.00000000
  H      2    1     -2.06882847     -1.44022412      0.00000000
  H      3    1     -0.12337987     -2.77567521      0.00000000
  H      4    1      0.04651892      1.98813947     -0.00000000
  C      5    6     -1.21953563      0.40211669      0.00000000
  O      6    8     -2.25921553      1.03043814      0.00000000
  C      7    6      1.28797806      0.34644937     -0.00000000
  O      8    8      2.31273661      1.00537216     -0.00000000
  N      9    7      0.03446295      0.97739857     -0.00000000
  N     10    7     -1.17287765     -0.98229824      0.00000000
  C     11    6      1.20107039     -1.10433419     -0.00000000
  H     12    1      2.11220096     -1.67699125     -0.00000000
[GTO]
1    0
S    1    1.000000
   4.56324000E+03    1.96665000E-03 
S    1    1.000000
   6.82024000E+02    1.52306000E-02 
S    1    1.000000
   1.54973000E+02    7.61269000E-02 
S    1    1.000000
   4.44553000E+01    2.60801000E-01 
S    1    1.000000
   1.30290000E+01    6.16462000E-01 
S    1    1.000000
   1.82773000E+00    2.21006000E-01 
SP   3    1.000000
   2.09642000E+01    1.14660000E-01   4.02487000E-02 
   4.80331000E+00    9.19999000E-01   2.37594000E-01 
   1.45933000E+00   -3.03068000E-03   8.15854000E-01 
SP   1    1.000000
   4.83456000E-01    1.00000000E+00   1.00000000E+00 
SP   1    1.000000
   1.45585000E-01    1.00000000E+00   1.00000000E+00 
SP   1    1.000000
   4.38000000E-02    1.00000000E+00   1.00000000E+00 
SP   1    1.000000
   1.31927711E-02    1.00000000E+00   1.00000000E+00 
D    1    1.000000
   6.26000000E-01    1.00000000E+00 

2    0
S    3    1.000000
   3.38650000E+01    2.54938000E-02 
   5.09479000E+00    1.90373000E-01 
   1.15879000E+00    8.52161000E-01 
S    1    1.000000
   3.25840000E-01    1.00000000E+00 
S    1    1.000000
   1.02741000E-01    1.00000000E+00 
S    1    1.000000
   3.60000000E-02    1.00000000E+00 
P    1    1.000000
   7.50000000E-01    1.00000000E+00 

3    0
S    3    1.000000
   3.38650000E+01    2.54938000E-02 
   5.09479000E+00    1.90373000E-01 
   1.15879000E+00    8.52161000E-01 
S    1    1.000000
   3.25840000E-01    1.00000000E+00 
S    1    1.000000
   1.02741000E-01    1.00000000E+00 
S    1    1.000000
   3.60000000E-02    1.00000000E+00 
P    1    1.000000
   7.50000000E-01    1.00000000E+00 

4    0
S    3    1.000000
   3.38650000E+01    2.54938000E-02 
   5.09479000E+00    1.90373000E-01 
   1.15879000E+00    8.52161000E-01 
S    1    1.000000
   3.25840000E-01    1.00000000E+00 
S    1    1.000000
   1.02741000E-01    1.00000000E+00 
S    1    1.000000
   3.60000000E-02    1.00000000E+00 
P    1    1.000000
   7.50000000E-01    1.00000000E+00 

5    0
S    1    1.000000
   4.56324000E+03    1.96665000E-03 
S    1    1.000000
   6.82024000E+02    1.52306000E-02 
S    1    1.000000
   1.54973000E+02    7.61269000E-02 
S    1    1.000000
   4.44553000E+01    2.60801000E-01 
S    1    1.000000
   1.30290000E+01    6.16462000E-01 
S    1    1.000000
   1.82773000E+00    2.21006000E-01 
SP   3    1.000000
   2.09642000E+01    1.14660000E-01   4.02487000E-02 
   4.80331000E+00    9.19999000E-01   2.37594000E-01 
   1.45933000E+00   -3.03068000E-03   8.15854000E-01 
SP   1    1.000000
   4.83456000E-01    1.00000000E+00   1.00000000E+00 
SP   1    1.000000
   1.45585000E-01    1.00000000E+00   1.00000000E+00 
SP   1    1.000000
   4.38000000E-02    1.00000000E+00   1.00000000E+00 
SP   1    1.000000
   1.31927711E-02    1.00000000E+00   1.00000000E+00 
D    1    1.000000
   6.26000000E-01    1.00000000E+00 

6    0
S    1    1.000000
   8.58850000E+03    1.89515000E-03 
S    1    1.000000
   1.29723000E+03    1.43859000E-02 
S    1    1.000000
   2.99296000E+02    7.07320000E-02 
S    1    1.000000
   8.73771000E+01    2.40001000E-01 
S    1    1.000000
   2.56789000E+01    5.94797000E-01 
S    1    1.000000
   3.74004000E+00    2.80802000E-01 
SP   3    1.000000
   4.21175000E+01    1.13889000E-01   3.65114000E-02 
   9.62837000E+00    9.20811000E-01   2.37153000E-01 
   2.85332000E+00   -3.27447000E-03   8.19702000E-01 
SP   1    1.000000
   9.05661000E-01    1.00000000E+00   1.00000000E+00 
SP   1    1.000000
   2.55611000E-01    1.00000000E+00   1.00000000E+00 
SP   1    1.000000
   8.45000000E-02    1.00000000E+00   1.00000000E+00 
SP   1    1.000000
   2.54518072E-02    1.00000000E+00   1.00000000E+00 
D    1    1.000000
   1.29200000E+00    1.00000000E+00 

7    0
S    1    1.000000
   4.56324000E+03    1.96665000E-03 
S    1    1.000000
   6.82024000E+02    1.52306000E-02 
S    1    1.000000
   1.54973000E+02    7.61269000E-02 
S    1    1.000000
   4.44553000E+01    2.60801000E-01 
S    1    1.000000
   1.30290000E+01    6.16462000E-01 
S    1    1.000000
   1.82773000E+00    2.21006000E-01 
SP   3    1.000000
   2.09642000E+01    1.14660000E-01   4.02487000E-02 
   4.80331000E+00    9.19999000E-01   2.37594000E-01 
   1.45933000E+00   -3.03068000E-03   8.15854000E-01 
SP   1    1.000000
   4.83456000E-01    1.00000000E+00   1.00000000E+00 
SP   1    1.000000
   1.45585000E-01    1.00000000E+00   1.00000000E+00 
SP   1    1.000000
   4.38000000E-02    1.00000000E+00   1.00000000E+00 
SP   1    1.000000
   1.31927711E-02    1.00000000E+00   1.00000000E+00 
D    1    1.000000
   6.26000000E-01    1.00000000E+00 

8    0
S    1    1.000000
   8.58850000E+03    1.89515000E-03 
S    1    1.000000
   1.29723000E+03    1.43859000E-02 
S    1    1.000000
   2.99296000E+02    7.07320000E-02 
S    1    1.000000
   8.73771000E+01    2.40001000E-01 
S    1    1.000000
   2.56789000E+01    5.94797000E-01 
S    1    1.000000
   3.74004000E+00    2.80802000E-01 
SP   3    1.000000
   4.21175000E+01    1.13889000E-01   3.65114000E-02 
   9.62837000E+00    9.20811000E-01   2.37153000E-01 
   2.85332000E+00   -3.27447000E-03   8.19702000E-01 
SP   1    1.000000
   9.05661000E-01    1.00000000E+00   1.00000000E+00 
SP   1    1.000000
   2.55611000E-01    1.00000000E+00   1.00000000E+00 
SP   1    1.000000
   8.45000000E-02    1.00000000E+00   1.00000000E+00 
SP   1    1.000000
   2.54518072E-02    1.00000000E+00   1.00000000E+00 
D    1    1.000000
   1.29200000E+00    1.00000000E+00 

9    0
S    1    1.000000
   6.29348000E+03    1.96979000E-03 
S    1    1.000000
   9.49044000E+02    1.49613000E-02 
S    1    1.000000
   2.18776000E+02    7.35006000E-02 
S    1    1.000000
   6.36916000E+01    2.48937000E-01 
S    1    1.000000
   1.88282000E+01    6.02460000E-01 
S    1    1.000000
   2.72023000E+00    2.56202000E-01 
SP   3    1.000000
   3.06331000E+01    1.11906000E-01   3.83119000E-02 
   7.02614000E+00    9.21666000E-01   2.37403000E-01 
   2.11205000E+00   -2.56919000E-03   8.17592000E-01 
SP   1    1.000000
   6.84009000E-01    1.00000000E+00   1.00000000E+00 
SP   1    1.000000
   2.00878000E-01    1.00000000E+00   1.00000000E+00 
SP   1    1.000000
   6.39000000E-02    1.00000000E+00   1.00000000E+00 
SP   1    1.000000
   1.92469880E-02    1.00000000E+00   1.00000000E+00 
D    1    1.000000
   9.13000000E-01    1.00000000E+00 

10    0
S    1    1.000000
   6.29348000E+03    1.96979000E-03 
S    1    1.000000
   9.49044000E+02    1.49613000E-02 
S    1    1.000000
   2.18776000E+02    7.35006000E-02 
S    1    1.000000
   6.36916000E+01    2.48937000E-01 
S    1    1.000000
   1.88282000E+01    6.02460000E-01 
S    1    1.000000
   2.72023000E+00    2.56202000E-01 
SP   3    1.000000
   3.06331000E+01    1.11906000E-01   3.83119000E-02 
   7.02614000E+00    9.21666000E-01   2.37403000E-01 
   2.11205000E+00   -2.56919000E-03   8.17592000E-01 
SP   1    1.000000
   6.84009000E-01    1.00000000E+00   1.00000000E+00 
SP   1    1.000000
   2.00878000E-01    1.00000000E+00   1.00000000E+00 
SP   1    1.000000
   6.39000000E-02    1.00000000E+00   1.00000000E+00 
SP   1    1.000000
   1.92469880E-02    1.00000000E+00   1.00000000E+00 
D    1    1.000000
   9.13000000E-01    1.00000000E+00 

11    0
S    1    1.000000
   4.56324000E+03    1.96665000E-03 
S    1    1.000000
   6.82024000E+02    1.52306000E-02 
S    1    1.000000
   1.54973000E+02    7.61269000E-02 
S    1    1.000000
   4.44553000E+01    2.60801000E-01 
S    1    1.000000
   1.30290000E+01    6.16462000E-01 
S    1    1.000000
   1.82773000E+00    2.21006000E-01 
SP   3    1.000000
   2.09642000E+01    1.14660000E-01   4.02487000E-02 
   4.80331000E+00    9.19999000E-01   2.37594000E-01 
   1.45933000E+00   -3.03068000E-03   8.15854000E-01 
SP   1    1.000000
   4.83456000E-01    1.00000000E+00   1.00000000E+00 
SP   1    1.000000
   1.45585000E-01    1.00000000E+00   1.00000000E+00 
SP   1    1.000000
   4.38000000E-02    1.00000000E+00   1.00000000E+00 
SP   1    1.000000
   1.31927711E-02    1.00000000E+00   1.00000000E+00 
D    1    1.000000
   6.26000000E-01    1.00000000E+00 

12    0
S    3    1.000000
   3.38650000E+01    2.54938000E-02 
   5.09479000E+00    1.90373000E-01 
   1.15879000E+00    8.52161000E-01 
S    1    1.000000
   3.25840000E-01    1.00000000E+00 
S    1    1.000000
   1.02741000E-01    1.00000000E+00 
S    1    1.000000
   3.60000000E-02    1.00000000E+00 
P    1    1.000000
   7.50000000E-01    1.00000000E+00 

[MO]
Sym=X
Ene=0.959024
Spin=Alpha
Occup=1
1    -1.37543209e-09
2    1.49688763e-08
3    -1.1030105e-07
4    3.50200961e-07
5    -5.44864254e-06
6    -2.49983871e-05
7    1.40965191e-05
8    -2.05426534e-06
9    -7.78047916e-06
10    -1.82332454e-15
11    4.76043964e-05
12    2.40227436e-05
13    4.06575145e-05
14    -1.50738901e-15
15    0.000133224311
16    -6.00952894e-05
17    4.49691955e-05
18    -2.11350579e-15
19    0.00100231446
20    -0.000120294884
21    0.000763696365
22    1.40230169e-14
23    2.73574039e-05
24    -0.000386905244
25    0.000274173016
26    5.50951181e-14
27    9.17095292e-06
28    3.59675124e-16
29    -7.53765407e-06
30    -1.39608578e-16
31    5.23088472e-06
32    5.55291133e-06
33    -3.48750567e-05
34    -0.000179238456
35    -0.000343497528
36    -2.83182977e-06
37    -3.31603549e-06
38    -4.14240775e-16
39    3.41699868e-06
40    -8.73677049e-07
41    4.43331423e-05
42    0.000633613087
43    2.53818319e-06
44    1.79223809e-06
45    -1.01030443e-15
46    0.000240167453
47    0.000100597267
48    0.000320468365
49    0.000257730696
50    9.19397178e-07
51    -0.000107314444
52    2.02197418e-15
53    2.18566966e-08
54    1.68559253e-07
55    7.84300054e-07
56    2.58136757e-06
57    3.66008889e-06
58    -3.06592399e-05
59    -7.25430404e-06
60    5.74120395e-05
61    2.94022235e-05
62    1.28765473e-15
63    0.000251638987
64    0.000223169168
65    9.24070387e-05
66    -3.073446e-16
67    -0.000230432045
68    -8.15061079e-06
69    2.61766554e-05
70    5.29995113e-15
71    -0.00137952004
72    -0.000455795141
73    0.000210272138
74    3.19925077e-14
75    -0.000928703063
76    -4.39450031e-05
77    0.000408447147
78    -9.07351968e-15
79    8.50508971e-05
80    6.94284294e-16
81    -3.58619763e-06
82    8.57350368e-16
83    0.000121528972
84    7.17502114e-09
85    6.24835009e-08
86    2.52032686e-07
87    1.06986402e-06
88    6.14927966e-07
89    -5.31633155e-06
90    9.0016806e-06
91    -1.37290429e-05
92    -5.04743262e-06
93    6.16908615e-16
94    2.34609917e-06
95    2.05657165e-05
96    -1.31395185e-06
97    -1.3305975e-16
98    5.01812137e-05
99    3.9654582e-06
100    -6.5954277e-06
101    3.59293335e-15
102    -7.41435167e-05
103    5.46245786e-06
104    -3.49517403e-06
105    -1.07361156e-14
106    -0.000118947015
107    6.98282817e-05
108    3.34781985e-05
109    7.58886984e-15
110    4.04482299e-06
111    -1.80870469e-16
112    -4.39595362e-06
113    3.47257188e-16
114    1.80799893e-05
115    2.23308309e-08
116    2.07501973e-07
117    7.24070646e-07
118    3.39580814e-06
119    -2.68459708e-06
120    -6.07168207e-05
121    1.19011967e-05
122    -3.36125379e-05
123    2.38597303e-05
124    2.87381846e-15
125    0.000266334696
126    -0.000311935783
127    0.000172925885
128    6.07578575e-15
129    -0.000258022088
130    0.000207745729
131    -0.000183991632
132    6.43063419e-15
133    -0.0014413962
134    0.000800394475
135    0.00047367307
136    2.54436807e-14
137    0.000181739173
138    0.000326853942
139    -9.14351311e-05
140    4.82337602e-14
141    -0.000165402835
142    1.05088349e-15
143    -1.09132464e-05
144    4.70416756e-17
145    0.000140317147
146    6.4283599e-09
147    7.50884512e-08
148    1.82424219e-07
149    1.32845366e-06
150    -3.43901108e-06
151    -2.23941637e-05
152    1.95605612e-05
153    1.95130826e-05
154    -2.00930365e-06
155    2.40644531e-15
156    3.62439977e-05
157    -4.85906784e-05
158    -1.97705128e-05
159    4.44930347e-15
160    4.97660105e-05
161    1.05831262e-05
162    2.47084414e-05
163    5.23540276e-15
164    -0.000221944296
165    -3.48010083e-05
166    1.17242463e-05
167    3.19252745e-15
168    -0.00113238169
169    0.000157109699
170    4.02884197e-05
171    -3.15598742e-15
172    5.94426834e-06
173    -2.72254643e-16
174    -4.70605697e-06
175    -9.16199729e-16
176    2.23142443e-05
177    0.00109718531
178    0.00835401993
179    0.0409324038
180    0.138943185
181    0.335939747
182    0.14410815
183    0.467414502
184    0.00031414241
185    -0.000293990507
186    2.6523114e-15
187    0.00434388081
188    -0.000204470453
189    0.000137087973
190    2.63507317e-15
191    -0.000319452378
192    0.000195098716
193    -0.000139116137
194    7.09687884e-15
195    0.00227343715
196    -9.12243999e-05
197    -0.000901628812
198    -1.62801461e-14
199    0.00192511974
200    0.000451809856
201    -0.00046606852
202    -2.85013383e-14
203    2.89130084e-05
204    -1.34212016e-16
205    2.68576391e-05
206    2.09699719e-18
207    1.96528077e-06
208    -5.52873529e-07
209    -4.17228128e-06
210    -2.07082944e-05
211    -6.92534274e-05
212    -0.000176461511
213    -0.000103939882
214    -0.000213548963
215    -4.48604482e-06
216    -1.71072989e-05
217    -1.49230549e-15
218    4.1376863e-05
219    9.91861839e-06
220    4.79317569e-05
221    -5.20264183e-16
222    -4.03460717e-07
223    -0.000124984704
224    -1.69941423e-05
225    -3.44057633e-15
226    -0.000420160279
227    -0.000427997074
228    -0.000100843623
229    -1.58061105e-14
230    -0.000512122777
231    -0.000425790522
232    0.000188802257
233    -3.47098754e-14
234    4.12703144e-06
235    2.50507831e-16
236    -6.43114437e-06
237    -3.37923137e-16
238    -1.87761467e-05
239    -1.21430506e-09
240    3.28100596e-08
241    -1.39654361e-07
242    7.17637439e-07
243    -8.73754695e-06
244    -4.09020237e-05
245    2.46016219e-05
246    -2.00419382e-07
247    -2.08805678e-05
248    -3.80535558e-16
249    8.33282683e-05
250    1.14151424e-05
251    0.000108862375
252    1.45291379e-15
253    -0.000214728083
254    5.71623369e-05
255    -0.000189408063
256    -2.43274987e-15
257    0.000483123069
258    3.98218748e-05
259    -6.51147999e-05
260    -1.11581174e-14
261    0.000350354011
262    -0.000291877942
263    -0.000500106914
264    -6.99894943e-14
265    -1.07405367e-05
266    8.03567148e-16
267    1.29788625e-06
268    5.78278308e-16
269    -5.37289768e-05
270    7.61185426e-06
271    7.03112044e-06
272    -0.000101680759
273    -8.60983417e-05
274    -3.05862473e-06
275    1.21483091e-05
276    3.78848378e-17
[5D]