[Molden Format]
[Atoms] (Angs)
  C      1    6     -0.00714236     -1.70213747     -0.00000000
  H      2    1     -2.06882847     -1.44022412      0.00000000
  H      3    1     -0.12337987     -2.77567521      0.00000000
  H      4    1      0.04651892      1.98813947     -0.00000000
  C      5    6     -1.21953563      0.40211669      0.00000000
  O      6    8     -2.25921553      1.03043814      0.00000000
  C      7    6      1.28797806      0.34644937     -0.00000000
  O      8    8      2.31273661      1.00537216     -0.00000000
  N      9    7      0.03446295      0.97739857     -0.00000000
  N     10    7     -1.17287765     -0.98229824      0.00000000
  C     11    6      1.20107039     -1.10433419     -0.00000000
  H     12    1      2.11220096     -1.67699125     -0.00000000
[GTO]
1    0
S    1    1.000000
   4.56324000E+03    1.96665000E-03 
S    1    1.000000
   6.82024000E+02    1.52306000E-02 
S    1    1.000000
   1.54973000E+02    7.61269000E-02 
S    1    1.000000
   4.44553000E+01    2.60801000E-01 
S    1    1.000000
   1.30290000E+01    6.16462000E-01 
S    1    1.000000
   1.82773000E+00    2.21006000E-01 
SP   3    1.000000
   2.09642000E+01    1.14660000E-01   4.02487000E-02 
   4.80331000E+00    9.19999000E-01   2.37594000E-01 
   1.45933000E+00   -3.03068000E-03   8.15854000E-01 
SP   1    1.000000
   4.83456000E-01    1.00000000E+00   1.00000000E+00 
SP   1    1.000000
   1.45585000E-01    1.00000000E+00   1.00000000E+00 
SP   1    1.000000
   4.38000000E-02    1.00000000E+00   1.00000000E+00 
SP   1    1.000000
   1.31927711E-02    1.00000000E+00   1.00000000E+00 
D    1    1.000000
   6.26000000E-01    1.00000000E+00 

2    0
S    3    1.000000
   3.38650000E+01    2.54938000E-02 
   5.09479000E+00    1.90373000E-01 
   1.15879000E+00    8.52161000E-01 
S    1    1.000000
   3.25840000E-01    1.00000000E+00 
S    1    1.000000
   1.02741000E-01    1.00000000E+00 
S    1    1.000000
   3.60000000E-02    1.00000000E+00 
P    1    1.000000
   7.50000000E-01    1.00000000E+00 

3    0
S    3    1.000000
   3.38650000E+01    2.54938000E-02 
   5.09479000E+00    1.90373000E-01 
   1.15879000E+00    8.52161000E-01 
S    1    1.000000
   3.25840000E-01    1.00000000E+00 
S    1    1.000000
   1.02741000E-01    1.00000000E+00 
S    1    1.000000
   3.60000000E-02    1.00000000E+00 
P    1    1.000000
   7.50000000E-01    1.00000000E+00 

4    0
S    3    1.000000
   3.38650000E+01    2.54938000E-02 
   5.09479000E+00    1.90373000E-01 
   1.15879000E+00    8.52161000E-01 
S    1    1.000000
   3.25840000E-01    1.00000000E+00 
S    1    1.000000
   1.02741000E-01    1.00000000E+00 
S    1    1.000000
   3.60000000E-02    1.00000000E+00 
P    1    1.000000
   7.50000000E-01    1.00000000E+00 

5    0
S    1    1.000000
   4.56324000E+03    1.96665000E-03 
S    1    1.000000
   6.82024000E+02    1.52306000E-02 
S    1    1.000000
   1.54973000E+02    7.61269000E-02 
S    1    1.000000
   4.44553000E+01    2.60801000E-01 
S    1    1.000000
   1.30290000E+01    6.16462000E-01 
S    1    1.000000
   1.82773000E+00    2.21006000E-01 
SP   3    1.000000
   2.09642000E+01    1.14660000E-01   4.02487000E-02 
   4.80331000E+00    9.19999000E-01   2.37594000E-01 
   1.45933000E+00   -3.03068000E-03   8.15854000E-01 
SP   1    1.000000
   4.83456000E-01    1.00000000E+00   1.00000000E+00 
SP   1    1.000000
   1.45585000E-01    1.00000000E+00   1.00000000E+00 
SP   1    1.000000
   4.38000000E-02    1.00000000E+00   1.00000000E+00 
SP   1    1.000000
   1.31927711E-02    1.00000000E+00   1.00000000E+00 
D    1    1.000000
   6.26000000E-01    1.00000000E+00 

6    0
S    1    1.000000
   8.58850000E+03    1.89515000E-03 
S    1    1.000000
   1.29723000E+03    1.43859000E-02 
S    1    1.000000
   2.99296000E+02    7.07320000E-02 
S    1    1.000000
   8.73771000E+01    2.40001000E-01 
S    1    1.000000
   2.56789000E+01    5.94797000E-01 
S    1    1.000000
   3.74004000E+00    2.80802000E-01 
SP   3    1.000000
   4.21175000E+01    1.13889000E-01   3.65114000E-02 
   9.62837000E+00    9.20811000E-01   2.37153000E-01 
   2.85332000E+00   -3.27447000E-03   8.19702000E-01 
SP   1    1.000000
   9.05661000E-01    1.00000000E+00   1.00000000E+00 
SP   1    1.000000
   2.55611000E-01    1.00000000E+00   1.00000000E+00 
SP   1    1.000000
   8.45000000E-02    1.00000000E+00   1.00000000E+00 
SP   1    1.000000
   2.54518072E-02    1.00000000E+00   1.00000000E+00 
D    1    1.000000
   1.29200000E+00    1.00000000E+00 

7    0
S    1    1.000000
   4.56324000E+03    1.96665000E-03 
S    1    1.000000
   6.82024000E+02    1.52306000E-02 
S    1    1.000000
   1.54973000E+02    7.61269000E-02 
S    1    1.000000
   4.44553000E+01    2.60801000E-01 
S    1    1.000000
   1.30290000E+01    6.16462000E-01 
S    1    1.000000
   1.82773000E+00    2.21006000E-01 
SP   3    1.000000
   2.09642000E+01    1.14660000E-01   4.02487000E-02 
   4.80331000E+00    9.19999000E-01   2.37594000E-01 
   1.45933000E+00   -3.03068000E-03   8.15854000E-01 
SP   1    1.000000
   4.83456000E-01    1.00000000E+00   1.00000000E+00 
SP   1    1.000000
   1.45585000E-01    1.00000000E+00   1.00000000E+00 
SP   1    1.000000
   4.38000000E-02    1.00000000E+00   1.00000000E+00 
SP   1    1.000000
   1.31927711E-02    1.00000000E+00   1.00000000E+00 
D    1    1.000000
   6.26000000E-01    1.00000000E+00 

8    0
S    1    1.000000
   8.58850000E+03    1.89515000E-03 
S    1    1.000000
   1.29723000E+03    1.43859000E-02 
S    1    1.000000
   2.99296000E+02    7.07320000E-02 
S    1    1.000000
   8.73771000E+01    2.40001000E-01 
S    1    1.000000
   2.56789000E+01    5.94797000E-01 
S    1    1.000000
   3.74004000E+00    2.80802000E-01 
SP   3    1.000000
   4.21175000E+01    1.13889000E-01   3.65114000E-02 
   9.62837000E+00    9.20811000E-01   2.37153000E-01 
   2.85332000E+00   -3.27447000E-03   8.19702000E-01 
SP   1    1.000000
   9.05661000E-01    1.00000000E+00   1.00000000E+00 
SP   1    1.000000
   2.55611000E-01    1.00000000E+00   1.00000000E+00 
SP   1    1.000000
   8.45000000E-02    1.00000000E+00   1.00000000E+00 
SP   1    1.000000
   2.54518072E-02    1.00000000E+00   1.00000000E+00 
D    1    1.000000
   1.29200000E+00    1.00000000E+00 

9    0
S    1    1.000000
   6.29348000E+03    1.96979000E-03 
S    1    1.000000
   9.49044000E+02    1.49613000E-02 
S    1    1.000000
   2.18776000E+02    7.35006000E-02 
S    1    1.000000
   6.36916000E+01    2.48937000E-01 
S    1    1.000000
   1.88282000E+01    6.02460000E-01 
S    1    1.000000
   2.72023000E+00    2.56202000E-01 
SP   3    1.000000
   3.06331000E+01    1.11906000E-01   3.83119000E-02 
   7.02614000E+00    9.21666000E-01   2.37403000E-01 
   2.11205000E+00   -2.56919000E-03   8.17592000E-01 
SP   1    1.000000
   6.84009000E-01    1.00000000E+00   1.00000000E+00 
SP   1    1.000000
   2.00878000E-01    1.00000000E+00   1.00000000E+00 
SP   1    1.000000
   6.39000000E-02    1.00000000E+00   1.00000000E+00 
SP   1    1.000000
   1.92469880E-02    1.00000000E+00   1.00000000E+00 
D    1    1.000000
   9.13000000E-01    1.00000000E+00 

10    0
S    1    1.000000
   6.29348000E+03    1.96979000E-03 
S    1    1.000000
   9.49044000E+02    1.49613000E-02 
S    1    1.000000
   2.18776000E+02    7.35006000E-02 
S    1    1.000000
   6.36916000E+01    2.48937000E-01 
S    1    1.000000
   1.88282000E+01    6.02460000E-01 
S    1    1.000000
   2.72023000E+00    2.56202000E-01 
SP   3    1.000000
   3.06331000E+01    1.11906000E-01   3.83119000E-02 
   7.02614000E+00    9.21666000E-01   2.37403000E-01 
   2.11205000E+00   -2.56919000E-03   8.17592000E-01 
SP   1    1.000000
   6.84009000E-01    1.00000000E+00   1.00000000E+00 
SP   1    1.000000
   2.00878000E-01    1.00000000E+00   1.00000000E+00 
SP   1    1.000000
   6.39000000E-02    1.00000000E+00   1.00000000E+00 
SP   1    1.000000
   1.92469880E-02    1.00000000E+00   1.00000000E+00 
D    1    1.000000
   9.13000000E-01    1.00000000E+00 

11    0
S    1    1.000000
   4.56324000E+03    1.96665000E-03 
S    1    1.000000
   6.82024000E+02    1.52306000E-02 
S    1    1.000000
   1.54973000E+02    7.61269000E-02 
S    1    1.000000
   4.44553000E+01    2.60801000E-01 
S    1    1.000000
   1.30290000E+01    6.16462000E-01 
S    1    1.000000
   1.82773000E+00    2.21006000E-01 
SP   3    1.000000
   2.09642000E+01    1.14660000E-01   4.02487000E-02 
   4.80331000E+00    9.19999000E-01   2.37594000E-01 
   1.45933000E+00   -3.03068000E-03   8.15854000E-01 
SP   1    1.000000
   4.83456000E-01    1.00000000E+00   1.00000000E+00 
SP   1    1.000000
   1.45585000E-01    1.00000000E+00   1.00000000E+00 
SP   1    1.000000
   4.38000000E-02    1.00000000E+00   1.00000000E+00 
SP   1    1.000000
   1.31927711E-02    1.00000000E+00   1.00000000E+00 
D    1    1.000000
   6.26000000E-01    1.00000000E+00 

12    0
S    3    1.000000
   3.38650000E+01    2.54938000E-02 
   5.09479000E+00    1.90373000E-01 
   1.15879000E+00    8.52161000E-01 
S    1    1.000000
   3.25840000E-01    1.00000000E+00 
S    1    1.000000
   1.02741000E-01    1.00000000E+00 
S    1    1.000000
   3.60000000E-02    1.00000000E+00 
P    1    1.000000
   7.50000000E-01    1.00000000E+00 

[MO]
Sym=X
Ene=0.010861
Spin=Alpha
Occup=1
1    1.32518412e-09
2    -1.53453973e-08
3    1.08437047e-07
4    -3.55971486e-07
5    5.43886158e-06
6    2.50662119e-05
7    -1.40921404e-05
8    2.1239263e-06
9    7.73264255e-06
10    1.82233775e-15
11    -4.79990627e-05
12    -2.34423948e-05
13    -4.09936909e-05
14    1.50360412e-15
15    -0.000132721347
16    5.984216e-05
17    -4.49195126e-05
18    2.11183394e-15
19    -0.000998892541
20    0.000120492778
21    -0.000761630047
22    -1.40500372e-14
23    -2.7634529e-05
24    0.000386630895
25    -0.000273554847
26    -5.52639947e-14
27    -8.81258497e-06
28    -3.59175006e-16
29    7.54061347e-06
30    1.39440906e-16
31    -5.36064583e-06
32    -5.94603502e-06
33    3.47971307e-05
34    0.000178537655
35    0.0003429315
36    2.69947214e-06
37    3.26123543e-06
38    4.13478914e-16
39    -3.43748267e-06
40    6.48118096e-07
41    -4.40452694e-05
42    -0.000632165638
43    -2.50837863e-06
44    -1.89962484e-06
45    1.00913802e-15
46    -0.000240176538
47    -0.000100580341
48    -0.000320107448
49    -0.000257210624
50    -9.18532341e-07
51    0.000107314022
52    -2.01998159e-15
53    -2.18918496e-08
54    -1.68854877e-07
55    -7.85496946e-07
56    -2.58595905e-06
57    -3.66007978e-06
58    3.07460321e-05
59    7.25272227e-06
60    -5.7413538e-05
61    -2.93124906e-05
62    -1.28604484e-15
63    -0.000252120884
64    -0.000223200212
65    -9.18592874e-05
66    3.15767347e-16
67    0.000230869271
68    8.04708854e-06
69    -2.63406992e-05
70    -5.30131373e-15
71    0.00138075479
72    0.000456467765
73    -0.000210751222
74    -3.20370745e-14
75    0.000930330868
76    4.45064365e-05
77    -0.00040822782
78    9.13746076e-15
79    -8.49801914e-05
80    -6.92722572e-16
81    3.60877974e-06
82    -8.58033393e-16
83    -0.000121205196
84    -1.53079012e-08
85    -1.24380179e-07
86    -5.55327231e-07
87    -2.10284202e-06
88    -3.16416009e-06
89    4.13000248e-06
90    -1.26928111e-05
91    1.37230967e-05
92    5.02634257e-06
93    -6.15447085e-16
94    -2.41433164e-06
95    -2.06001466e-05
96    1.35818665e-06
97    1.39650908e-16
98    -5.03026322e-05
99    -3.9752797e-06
100    6.61735238e-06
101    -3.59630378e-15
102    7.42626233e-05
103    -5.48569883e-06
104    3.52305283e-06
105    1.0765228e-14
106    0.000120199441
107    -6.96807844e-05
108    -3.35321263e-05
109    -7.62963847e-15
110    -4.01334288e-06
111    1.80566798e-16
112    4.40553166e-06
113    -3.46473676e-16
114    -1.80572684e-05
115    -2.23289098e-08
116    -2.07513247e-07
117    -7.23937977e-07
118    -3.39608255e-06
119    2.69069306e-06
120    6.07462594e-05
121    -1.19165271e-05
122    3.36023569e-05
123    -2.38717153e-05
124    -2.87210029e-15
125    -0.000266380494
126    0.000311965763
127    -0.000172872049
128    -6.07254898e-15
129    0.000257621084
130    -0.000207841502
131    0.000183892326
132    -6.42956467e-15
133    0.00143927884
134    -0.000799548333
135    -0.000473317181
136    -2.54676483e-14
137    -0.000181662531
138    -0.00032606083
139    9.11328612e-05
140    -4.83881462e-14
141    0.000165400551
142    -1.04942778e-15
143    1.09274581e-05
144    -4.69346369e-17
145    -0.000140309173
146    -2.16574485e-08
147    -1.90948425e-07
148    -7.50429691e-07
149    -3.26176184e-06
150    -1.34285354e-06
151    2.01219001e-05
152    -2.64379914e-05
153    -1.94907215e-05
154    2.02346329e-06
155    -2.40488503e-15
156    -3.63517603e-05
157    4.85906596e-05
158    1.97715767e-05
159    -4.44723975e-15
160    -4.96694572e-05
161    -1.06228436e-05
162    -2.47357421e-05
163    -5.23209979e-15
164    0.000222285048
165    3.4633874e-05
166    -1.17949907e-05
167    -3.18573986e-15
168    0.00113204669
169    -0.000157154767
170    -4.0390413e-05
171    3.15910502e-15
172    -5.93985785e-06
173    2.72049264e-16
174    4.70668509e-06
175    9.15321492e-16
176    -2.23122131e-05
177    -0.00109718467
178    -0.00835401518
179    -0.04093238
180    -0.138943107
181    -0.335939539
182    -0.144108004
183    -0.467414275
184    -0.000314168863
185    0.000293967909
186    -2.65003905e-15
187    -0.00434396543
188    0.00020455987
189    -0.000137023561
190    -2.6308417e-15
191    0.000319479002
192    -0.000195108591
193    0.000138978081
194    -7.09183503e-15
195    -0.0022726291
196    9.11373101e-05
197    0.000900814377
198    1.63073769e-14
199    -0.0019243172
200    -0.00045113854
201    0.000465681768
202    2.85496609e-14
203    -2.89508186e-05
204    1.34209852e-16
205    -2.68451513e-05
206    -2.311727e-18
207    -1.98277531e-06
208    -1.30825254e-06
209    -9.99832032e-06
210    -4.87243962e-05
211    -0.000166426757
212    -0.000393377843
213    -0.000140452173
214    -0.000579373247
215    3.94583112e-06
216    1.69090939e-05
217    1.49108481e-15
218    -4.86419927e-05
219    -9.58144781e-06
220    -4.78542307e-05
221    5.22496078e-16
222    1.0458512e-06
223    0.000124814445
224    1.69702125e-05
225    3.43424748e-15
226    0.000416151157
227    0.000426352239
228    9.99919634e-05
229    1.58378438e-14
230    0.000509210065
231    0.000425080355
232    -0.000189172896
233    3.47571297e-14
234    -4.18911377e-06
235    -2.49736451e-16
236    6.39700215e-06
237    3.37732235e-16
238    1.87327724e-05
239    1.21792383e-09
240    -3.28706552e-08
241    1.39990048e-07
242    -7.18984565e-07
243    8.75654439e-06
244    4.09947717e-05
245    -2.46533376e-05
246    1.6840512e-07
247    2.08733081e-05
248    3.80864618e-16
249    -8.35388028e-05
250    -1.12079323e-05
251    -0.000108795368
252    -1.45808038e-15
253    0.000214981966
254    -5.73774589e-05
255    0.000189471452
256    2.43841693e-15
257    -0.000484700623
258    -3.9612618e-05
259    6.49260049e-05
260    1.11618389e-14
261    -0.000351112014
262    0.000291236201
263    0.00049909049
264    7.01953749e-14
265    1.07021326e-05
266    -8.01786815e-16
267    -1.28106566e-06
268    -5.7750226e-16
269    5.36306571e-05
270    -7.62030736e-06
271    -7.03134634e-06
272    0.000101801611
273    8.60546373e-05
274    3.07487187e-06
275    -1.21403923e-05
276    -3.87654662e-17
[5D]