[Molden Format]
[Atoms] (Angs)
  C      1    6     -0.00714236     -1.70213747     -0.00000000
  H      2    1     -2.06882847     -1.44022412      0.00000000
  H      3    1     -0.12337987     -2.77567521      0.00000000
  H      4    1      0.04651892      1.98813947     -0.00000000
  C      5    6     -1.21953563      0.40211669      0.00000000
  O      6    8     -2.25921553      1.03043814      0.00000000
  C      7    6      1.28797806      0.34644937     -0.00000000
  O      8    8      2.31273661      1.00537216     -0.00000000
  N      9    7      0.03446295      0.97739857     -0.00000000
  N     10    7     -1.17287765     -0.98229824      0.00000000
  C     11    6      1.20107039     -1.10433419     -0.00000000
  H     12    1      2.11220096     -1.67699125     -0.00000000
[GTO]
1    0
S    1    1.000000
   4.56324000E+03    1.96665000E-03 
S    1    1.000000
   6.82024000E+02    1.52306000E-02 
S    1    1.000000
   1.54973000E+02    7.61269000E-02 
S    1    1.000000
   4.44553000E+01    2.60801000E-01 
S    1    1.000000
   1.30290000E+01    6.16462000E-01 
S    1    1.000000
   1.82773000E+00    2.21006000E-01 
SP   3    1.000000
   2.09642000E+01    1.14660000E-01   4.02487000E-02 
   4.80331000E+00    9.19999000E-01   2.37594000E-01 
   1.45933000E+00   -3.03068000E-03   8.15854000E-01 
SP   1    1.000000
   4.83456000E-01    1.00000000E+00   1.00000000E+00 
SP   1    1.000000
   1.45585000E-01    1.00000000E+00   1.00000000E+00 
SP   1    1.000000
   4.38000000E-02    1.00000000E+00   1.00000000E+00 
SP   1    1.000000
   1.31927711E-02    1.00000000E+00   1.00000000E+00 
D    1    1.000000
   6.26000000E-01    1.00000000E+00 

2    0
S    3    1.000000
   3.38650000E+01    2.54938000E-02 
   5.09479000E+00    1.90373000E-01 
   1.15879000E+00    8.52161000E-01 
S    1    1.000000
   3.25840000E-01    1.00000000E+00 
S    1    1.000000
   1.02741000E-01    1.00000000E+00 
S    1    1.000000
   3.60000000E-02    1.00000000E+00 
P    1    1.000000
   7.50000000E-01    1.00000000E+00 

3    0
S    3    1.000000
   3.38650000E+01    2.54938000E-02 
   5.09479000E+00    1.90373000E-01 
   1.15879000E+00    8.52161000E-01 
S    1    1.000000
   3.25840000E-01    1.00000000E+00 
S    1    1.000000
   1.02741000E-01    1.00000000E+00 
S    1    1.000000
   3.60000000E-02    1.00000000E+00 
P    1    1.000000
   7.50000000E-01    1.00000000E+00 

4    0
S    3    1.000000
   3.38650000E+01    2.54938000E-02 
   5.09479000E+00    1.90373000E-01 
   1.15879000E+00    8.52161000E-01 
S    1    1.000000
   3.25840000E-01    1.00000000E+00 
S    1    1.000000
   1.02741000E-01    1.00000000E+00 
S    1    1.000000
   3.60000000E-02    1.00000000E+00 
P    1    1.000000
   7.50000000E-01    1.00000000E+00 

5    0
S    1    1.000000
   4.56324000E+03    1.96665000E-03 
S    1    1.000000
   6.82024000E+02    1.52306000E-02 
S    1    1.000000
   1.54973000E+02    7.61269000E-02 
S    1    1.000000
   4.44553000E+01    2.60801000E-01 
S    1    1.000000
   1.30290000E+01    6.16462000E-01 
S    1    1.000000
   1.82773000E+00    2.21006000E-01 
SP   3    1.000000
   2.09642000E+01    1.14660000E-01   4.02487000E-02 
   4.80331000E+00    9.19999000E-01   2.37594000E-01 
   1.45933000E+00   -3.03068000E-03   8.15854000E-01 
SP   1    1.000000
   4.83456000E-01    1.00000000E+00   1.00000000E+00 
SP   1    1.000000
   1.45585000E-01    1.00000000E+00   1.00000000E+00 
SP   1    1.000000
   4.38000000E-02    1.00000000E+00   1.00000000E+00 
SP   1    1.000000
   1.31927711E-02    1.00000000E+00   1.00000000E+00 
D    1    1.000000
   6.26000000E-01    1.00000000E+00 

6    0
S    1    1.000000
   8.58850000E+03    1.89515000E-03 
S    1    1.000000
   1.29723000E+03    1.43859000E-02 
S    1    1.000000
   2.99296000E+02    7.07320000E-02 
S    1    1.000000
   8.73771000E+01    2.40001000E-01 
S    1    1.000000
   2.56789000E+01    5.94797000E-01 
S    1    1.000000
   3.74004000E+00    2.80802000E-01 
SP   3    1.000000
   4.21175000E+01    1.13889000E-01   3.65114000E-02 
   9.62837000E+00    9.20811000E-01   2.37153000E-01 
   2.85332000E+00   -3.27447000E-03   8.19702000E-01 
SP   1    1.000000
   9.05661000E-01    1.00000000E+00   1.00000000E+00 
SP   1    1.000000
   2.55611000E-01    1.00000000E+00   1.00000000E+00 
SP   1    1.000000
   8.45000000E-02    1.00000000E+00   1.00000000E+00 
SP   1    1.000000
   2.54518072E-02    1.00000000E+00   1.00000000E+00 
D    1    1.000000
   1.29200000E+00    1.00000000E+00 

7    0
S    1    1.000000
   4.56324000E+03    1.96665000E-03 
S    1    1.000000
   6.82024000E+02    1.52306000E-02 
S    1    1.000000
   1.54973000E+02    7.61269000E-02 
S    1    1.000000
   4.44553000E+01    2.60801000E-01 
S    1    1.000000
   1.30290000E+01    6.16462000E-01 
S    1    1.000000
   1.82773000E+00    2.21006000E-01 
SP   3    1.000000
   2.09642000E+01    1.14660000E-01   4.02487000E-02 
   4.80331000E+00    9.19999000E-01   2.37594000E-01 
   1.45933000E+00   -3.03068000E-03   8.15854000E-01 
SP   1    1.000000
   4.83456000E-01    1.00000000E+00   1.00000000E+00 
SP   1    1.000000
   1.45585000E-01    1.00000000E+00   1.00000000E+00 
SP   1    1.000000
   4.38000000E-02    1.00000000E+00   1.00000000E+00 
SP   1    1.000000
   1.31927711E-02    1.00000000E+00   1.00000000E+00 
D    1    1.000000
   6.26000000E-01    1.00000000E+00 

8    0
S    1    1.000000
   8.58850000E+03    1.89515000E-03 
S    1    1.000000
   1.29723000E+03    1.43859000E-02 
S    1    1.000000
   2.99296000E+02    7.07320000E-02 
S    1    1.000000
   8.73771000E+01    2.40001000E-01 
S    1    1.000000
   2.56789000E+01    5.94797000E-01 
S    1    1.000000
   3.74004000E+00    2.80802000E-01 
SP   3    1.000000
   4.21175000E+01    1.13889000E-01   3.65114000E-02 
   9.62837000E+00    9.20811000E-01   2.37153000E-01 
   2.85332000E+00   -3.27447000E-03   8.19702000E-01 
SP   1    1.000000
   9.05661000E-01    1.00000000E+00   1.00000000E+00 
SP   1    1.000000
   2.55611000E-01    1.00000000E+00   1.00000000E+00 
SP   1    1.000000
   8.45000000E-02    1.00000000E+00   1.00000000E+00 
SP   1    1.000000
   2.54518072E-02    1.00000000E+00   1.00000000E+00 
D    1    1.000000
   1.29200000E+00    1.00000000E+00 

9    0
S    1    1.000000
   6.29348000E+03    1.96979000E-03 
S    1    1.000000
   9.49044000E+02    1.49613000E-02 
S    1    1.000000
   2.18776000E+02    7.35006000E-02 
S    1    1.000000
   6.36916000E+01    2.48937000E-01 
S    1    1.000000
   1.88282000E+01    6.02460000E-01 
S    1    1.000000
   2.72023000E+00    2.56202000E-01 
SP   3    1.000000
   3.06331000E+01    1.11906000E-01   3.83119000E-02 
   7.02614000E+00    9.21666000E-01   2.37403000E-01 
   2.11205000E+00   -2.56919000E-03   8.17592000E-01 
SP   1    1.000000
   6.84009000E-01    1.00000000E+00   1.00000000E+00 
SP   1    1.000000
   2.00878000E-01    1.00000000E+00   1.00000000E+00 
SP   1    1.000000
   6.39000000E-02    1.00000000E+00   1.00000000E+00 
SP   1    1.000000
   1.92469880E-02    1.00000000E+00   1.00000000E+00 
D    1    1.000000
   9.13000000E-01    1.00000000E+00 

10    0
S    1    1.000000
   6.29348000E+03    1.96979000E-03 
S    1    1.000000
   9.49044000E+02    1.49613000E-02 
S    1    1.000000
   2.18776000E+02    7.35006000E-02 
S    1    1.000000
   6.36916000E+01    2.48937000E-01 
S    1    1.000000
   1.88282000E+01    6.02460000E-01 
S    1    1.000000
   2.72023000E+00    2.56202000E-01 
SP   3    1.000000
   3.06331000E+01    1.11906000E-01   3.83119000E-02 
   7.02614000E+00    9.21666000E-01   2.37403000E-01 
   2.11205000E+00   -2.56919000E-03   8.17592000E-01 
SP   1    1.000000
   6.84009000E-01    1.00000000E+00   1.00000000E+00 
SP   1    1.000000
   2.00878000E-01    1.00000000E+00   1.00000000E+00 
SP   1    1.000000
   6.39000000E-02    1.00000000E+00   1.00000000E+00 
SP   1    1.000000
   1.92469880E-02    1.00000000E+00   1.00000000E+00 
D    1    1.000000
   9.13000000E-01    1.00000000E+00 

11    0
S    1    1.000000
   4.56324000E+03    1.96665000E-03 
S    1    1.000000
   6.82024000E+02    1.52306000E-02 
S    1    1.000000
   1.54973000E+02    7.61269000E-02 
S    1    1.000000
   4.44553000E+01    2.60801000E-01 
S    1    1.000000
   1.30290000E+01    6.16462000E-01 
S    1    1.000000
   1.82773000E+00    2.21006000E-01 
SP   3    1.000000
   2.09642000E+01    1.14660000E-01   4.02487000E-02 
   4.80331000E+00    9.19999000E-01   2.37594000E-01 
   1.45933000E+00   -3.03068000E-03   8.15854000E-01 
SP   1    1.000000
   4.83456000E-01    1.00000000E+00   1.00000000E+00 
SP   1    1.000000
   1.45585000E-01    1.00000000E+00   1.00000000E+00 
SP   1    1.000000
   4.38000000E-02    1.00000000E+00   1.00000000E+00 
SP   1    1.000000
   1.31927711E-02    1.00000000E+00   1.00000000E+00 
D    1    1.000000
   6.26000000E-01    1.00000000E+00 

12    0
S    3    1.000000
   3.38650000E+01    2.54938000E-02 
   5.09479000E+00    1.90373000E-01 
   1.15879000E+00    8.52161000E-01 
S    1    1.000000
   3.25840000E-01    1.00000000E+00 
S    1    1.000000
   1.02741000E-01    1.00000000E+00 
S    1    1.000000
   3.60000000E-02    1.00000000E+00 
P    1    1.000000
   7.50000000E-01    1.00000000E+00 

[MO]
Sym=X
Ene=0.95533
Spin=Alpha
Occup=1
1    -2.96408701e-08
2    -2.21854214e-07
3    -1.10017943e-06
4    -3.39885644e-06
5    -5.81526705e-06
6    3.97971314e-05
7    2.68983112e-06
8    4.10798016e-05
9    -2.82182672e-05
10    -5.82782516e-16
11    -0.000232163006
12    0.000342088908
13    -0.000198075438
14    -2.23773229e-15
15    0.000289891795
16    -0.000150275092
17    2.5985019e-05
18    -1.01478555e-15
19    0.00201428978
20    0.000120524377
21    0.00120806094
22    -1.58895821e-14
23    -0.000158918147
24    -0.000160600784
25    0.000365944554
26    -9.95829323e-14
27    0.00021137642
28    2.94455906e-16
29    1.783508e-06
30    -1.06850958e-16
31    -7.66323981e-05
32    -0.000231727248
33    -4.57127232e-05
34    -0.000413069724
35    -0.000331414012
36    -7.8006449e-05
37    -3.23212202e-05
38    -4.45800772e-16
39    -1.21029569e-05
40    -0.000133089328
41    0.000167615852
42    0.000846345776
43    1.76224547e-05
44    -6.33545242e-05
45    -6.87736852e-16
46    -5.49732593e-06
47    1.06370523e-05
48    0.000212255222
49    0.000308366235
50    5.06885105e-07
51    -2.94327492e-07
52    1.17589582e-15
53    -2.07887008e-08
54    -1.75020286e-07
55    -7.07835797e-07
56    -2.72387399e-06
57    -4.00978139e-08
58    5.05866759e-05
59    -9.75812987e-07
60    -1.04957986e-06
61    5.29787287e-05
62    9.61603624e-16
63    -0.000282093885
64    -2.08195625e-05
65    0.000324140079
66    5.0016618e-15
67    0.000250908022
68    -6.18672731e-05
69    -9.7601809e-05
70    -7.882545e-16
71    0.000708178218
72    0.00040031315
73    -0.000291126174
74    -2.62550488e-14
75    0.000955838998
76    0.000328932778
77    0.000126322132
78    3.7661133e-14
79    4.04006832e-05
80    9.22335919e-16
81    1.29795852e-05
82    -4.12978234e-16
83    0.000191376001
84    -7.2525529e-09
85    -7.23163953e-08
86    -2.33870564e-07
87    -1.25906086e-06
88    1.27682632e-06
89    1.37213775e-05
90    -1.45210391e-05
91    4.1848225e-06
92    -1.6852939e-05
93    8.76794552e-16
94    -1.77215471e-05
95    -2.39292981e-05
96    2.81796647e-05
97    3.91022369e-15
98    -7.47849393e-05
99    -4.0076533e-06
100    1.19676493e-05
101    -1.95443583e-15
102    8.12804058e-05
103    -1.33679741e-05
104    1.65608664e-05
105    1.72092146e-14
106    0.000755029892
107    9.07430595e-05
108    -3.43868026e-05
109    -2.40150195e-14
110    1.89915556e-05
111    -1.80815075e-16
112    5.24778524e-06
113    4.66425852e-16
114    1.31385526e-05
115    1.01750681e-09
116    -7.91645295e-09
117    7.41909781e-08
118    -1.92931259e-07
119    3.4577259e-06
120    1.57481286e-05
121    -8.92342342e-06
122    -5.82872599e-06
123    -6.96179211e-06
124    9.95495697e-16
125    -2.17769328e-05
126    2.3388549e-05
127    3.53079374e-05
128    1.86968928e-15
129    -0.000240656946
130    -5.35676096e-05
131    -5.55385578e-05
132    5.98744121e-16
133    -0.00127263334
134    0.00047813987
135    0.00020245269
136    -1.41542824e-14
137    4.37648836e-05
138    0.000463992655
139    -0.000171827347
140    -9.10450181e-14
141    1.96358425e-06
142    8.58173047e-16
143    7.40917405e-06
144    5.55847881e-17
145    6.03662148e-06
146    7.2666872e-10
147    -1.41413825e-09
148    4.30314655e-08
149    -4.28316894e-08
150    1.65274019e-06
151    6.30337781e-06
152    -3.69534189e-06
153    -1.31422684e-06
154    -7.84959376e-07
155    9.1009966e-16
156    -1.39434729e-05
157    6.93372149e-06
158    4.97657046e-06
159    1.18671003e-15
160    4.33187134e-05
161    -2.38266978e-05
162    -1.63831395e-05
163    1.91992512e-15
164    0.000223979508
165    -0.00010019182
166    -4.30172429e-05
167    3.94064256e-15
168    -0.000153240935
169    -3.49213435e-05
170    -6.34235747e-05
171    1.81572301e-15
172    -1.08649405e-06
173    -1.19370157e-16
174    -6.3759704e-07
175    -5.14029648e-16
176    -6.63463444e-07
177    -5.41707656e-07
178    -4.16745149e-06
179    -2.01143461e-05
180    -6.94701512e-05
181    -0.000157589001
182    -3.48779521e-05
183    -0.00025595925
184    -1.59931143e-05
185    -1.30681201e-05
186    1.33572034e-15
187    -5.32230181e-05
188    5.34173474e-05
189    3.77202663e-05
190    2.49985585e-15
191    1.8782769e-05
192    -7.31665983e-06
193    -8.36457171e-05
194    2.96955419e-15
195    0.00047721567
196    -5.54016038e-05
197    -0.000478794233
198    1.60382765e-14
199    0.000446937327
200    0.000382326262
201    -0.000228251076
202    2.84777463e-14
203    -2.24434508e-05
204    -3.77944899e-18
205    7.22359967e-06
206    -1.35706528e-16
207    -9.74396965e-06
208    -0.00109720618
209    -0.00835412037
210    -0.040933271
211    -0.138942627
212    -0.335942489
213    -0.144078771
214    -0.467458363
215    -0.000318431529
216    -0.00011689907
217    -7.05897804e-16
218    -0.00428286298
219    0.000198672902
220    4.58858244e-05
221    1.3112777e-15
222    0.000379895085
223    -9.91321025e-05
224    -1.38581164e-05
225    -3.67646608e-15
226    -0.00235600683
227    -0.000967139781
228    -0.000501754173
229    1.86777574e-14
230    -0.0017267096
231    -0.000414052814
232    -0.000223418035
233    2.78405438e-14
234    -3.67442815e-05
235    4.57454713e-16
236    -2.01317138e-05
237    -1.16301836e-16
238    -2.56856662e-05
239    2.14024454e-09
240    -3.55506483e-08
241    1.97917036e-07
242    -7.90797748e-07
243    1.11782669e-05
244    5.45574792e-05
245    -3.0408211e-05
246    -1.895414e-05
247    -4.46303192e-06
248    1.81690047e-16
249    -0.000124157092
250    0.000122272525
251    4.05395991e-05
252    -3.07095149e-15
253    0.000156400138
254    -0.00013168051
255    3.85739665e-05
256    3.30974013e-15
257    -0.000928688917
258    0.000132343326
259    -0.000106395296
260    2.1209377e-15
261    -0.000440894545
262    -0.000375812
263    -0.000599039179
264    1.21376418e-13
265    -2.20886848e-05
266    1.04293127e-15
267    9.8712739e-06
268    4.534879e-16
269    -5.84498467e-05
270    -4.95519319e-06
271    1.16576106e-06
272    7.18961338e-05
273    -3.3239875e-05
274    9.31400159e-06
275    4.81114163e-06
276    -5.2828251e-16
[5D]