[Molden Format]
[Atoms] (Angs)
  C      1    6     -0.00714236     -1.70213747     -0.00000000
  H      2    1     -2.06882847     -1.44022412      0.00000000
  H      3    1     -0.12337987     -2.77567521      0.00000000
  H      4    1      0.04651892      1.98813947     -0.00000000
  C      5    6     -1.21953563      0.40211669      0.00000000
  O      6    8     -2.25921553      1.03043814      0.00000000
  C      7    6      1.28797806      0.34644937     -0.00000000
  O      8    8      2.31273661      1.00537216     -0.00000000
  N      9    7      0.03446295      0.97739857     -0.00000000
  N     10    7     -1.17287765     -0.98229824      0.00000000
  C     11    6      1.20107039     -1.10433419     -0.00000000
  H     12    1      2.11220096     -1.67699125     -0.00000000
[GTO]
1    0
S    1    1.000000
   4.56324000E+03    1.96665000E-03 
S    1    1.000000
   6.82024000E+02    1.52306000E-02 
S    1    1.000000
   1.54973000E+02    7.61269000E-02 
S    1    1.000000
   4.44553000E+01    2.60801000E-01 
S    1    1.000000
   1.30290000E+01    6.16462000E-01 
S    1    1.000000
   1.82773000E+00    2.21006000E-01 
SP   3    1.000000
   2.09642000E+01    1.14660000E-01   4.02487000E-02 
   4.80331000E+00    9.19999000E-01   2.37594000E-01 
   1.45933000E+00   -3.03068000E-03   8.15854000E-01 
SP   1    1.000000
   4.83456000E-01    1.00000000E+00   1.00000000E+00 
SP   1    1.000000
   1.45585000E-01    1.00000000E+00   1.00000000E+00 
SP   1    1.000000
   4.38000000E-02    1.00000000E+00   1.00000000E+00 
SP   1    1.000000
   1.31927711E-02    1.00000000E+00   1.00000000E+00 
D    1    1.000000
   6.26000000E-01    1.00000000E+00 

2    0
S    3    1.000000
   3.38650000E+01    2.54938000E-02 
   5.09479000E+00    1.90373000E-01 
   1.15879000E+00    8.52161000E-01 
S    1    1.000000
   3.25840000E-01    1.00000000E+00 
S    1    1.000000
   1.02741000E-01    1.00000000E+00 
S    1    1.000000
   3.60000000E-02    1.00000000E+00 
P    1    1.000000
   7.50000000E-01    1.00000000E+00 

3    0
S    3    1.000000
   3.38650000E+01    2.54938000E-02 
   5.09479000E+00    1.90373000E-01 
   1.15879000E+00    8.52161000E-01 
S    1    1.000000
   3.25840000E-01    1.00000000E+00 
S    1    1.000000
   1.02741000E-01    1.00000000E+00 
S    1    1.000000
   3.60000000E-02    1.00000000E+00 
P    1    1.000000
   7.50000000E-01    1.00000000E+00 

4    0
S    3    1.000000
   3.38650000E+01    2.54938000E-02 
   5.09479000E+00    1.90373000E-01 
   1.15879000E+00    8.52161000E-01 
S    1    1.000000
   3.25840000E-01    1.00000000E+00 
S    1    1.000000
   1.02741000E-01    1.00000000E+00 
S    1    1.000000
   3.60000000E-02    1.00000000E+00 
P    1    1.000000
   7.50000000E-01    1.00000000E+00 

5    0
S    1    1.000000
   4.56324000E+03    1.96665000E-03 
S    1    1.000000
   6.82024000E+02    1.52306000E-02 
S    1    1.000000
   1.54973000E+02    7.61269000E-02 
S    1    1.000000
   4.44553000E+01    2.60801000E-01 
S    1    1.000000
   1.30290000E+01    6.16462000E-01 
S    1    1.000000
   1.82773000E+00    2.21006000E-01 
SP   3    1.000000
   2.09642000E+01    1.14660000E-01   4.02487000E-02 
   4.80331000E+00    9.19999000E-01   2.37594000E-01 
   1.45933000E+00   -3.03068000E-03   8.15854000E-01 
SP   1    1.000000
   4.83456000E-01    1.00000000E+00   1.00000000E+00 
SP   1    1.000000
   1.45585000E-01    1.00000000E+00   1.00000000E+00 
SP   1    1.000000
   4.38000000E-02    1.00000000E+00   1.00000000E+00 
SP   1    1.000000
   1.31927711E-02    1.00000000E+00   1.00000000E+00 
D    1    1.000000
   6.26000000E-01    1.00000000E+00 

6    0
S    1    1.000000
   8.58850000E+03    1.89515000E-03 
S    1    1.000000
   1.29723000E+03    1.43859000E-02 
S    1    1.000000
   2.99296000E+02    7.07320000E-02 
S    1    1.000000
   8.73771000E+01    2.40001000E-01 
S    1    1.000000
   2.56789000E+01    5.94797000E-01 
S    1    1.000000
   3.74004000E+00    2.80802000E-01 
SP   3    1.000000
   4.21175000E+01    1.13889000E-01   3.65114000E-02 
   9.62837000E+00    9.20811000E-01   2.37153000E-01 
   2.85332000E+00   -3.27447000E-03   8.19702000E-01 
SP   1    1.000000
   9.05661000E-01    1.00000000E+00   1.00000000E+00 
SP   1    1.000000
   2.55611000E-01    1.00000000E+00   1.00000000E+00 
SP   1    1.000000
   8.45000000E-02    1.00000000E+00   1.00000000E+00 
SP   1    1.000000
   2.54518072E-02    1.00000000E+00   1.00000000E+00 
D    1    1.000000
   1.29200000E+00    1.00000000E+00 

7    0
S    1    1.000000
   4.56324000E+03    1.96665000E-03 
S    1    1.000000
   6.82024000E+02    1.52306000E-02 
S    1    1.000000
   1.54973000E+02    7.61269000E-02 
S    1    1.000000
   4.44553000E+01    2.60801000E-01 
S    1    1.000000
   1.30290000E+01    6.16462000E-01 
S    1    1.000000
   1.82773000E+00    2.21006000E-01 
SP   3    1.000000
   2.09642000E+01    1.14660000E-01   4.02487000E-02 
   4.80331000E+00    9.19999000E-01   2.37594000E-01 
   1.45933000E+00   -3.03068000E-03   8.15854000E-01 
SP   1    1.000000
   4.83456000E-01    1.00000000E+00   1.00000000E+00 
SP   1    1.000000
   1.45585000E-01    1.00000000E+00   1.00000000E+00 
SP   1    1.000000
   4.38000000E-02    1.00000000E+00   1.00000000E+00 
SP   1    1.000000
   1.31927711E-02    1.00000000E+00   1.00000000E+00 
D    1    1.000000
   6.26000000E-01    1.00000000E+00 

8    0
S    1    1.000000
   8.58850000E+03    1.89515000E-03 
S    1    1.000000
   1.29723000E+03    1.43859000E-02 
S    1    1.000000
   2.99296000E+02    7.07320000E-02 
S    1    1.000000
   8.73771000E+01    2.40001000E-01 
S    1    1.000000
   2.56789000E+01    5.94797000E-01 
S    1    1.000000
   3.74004000E+00    2.80802000E-01 
SP   3    1.000000
   4.21175000E+01    1.13889000E-01   3.65114000E-02 
   9.62837000E+00    9.20811000E-01   2.37153000E-01 
   2.85332000E+00   -3.27447000E-03   8.19702000E-01 
SP   1    1.000000
   9.05661000E-01    1.00000000E+00   1.00000000E+00 
SP   1    1.000000
   2.55611000E-01    1.00000000E+00   1.00000000E+00 
SP   1    1.000000
   8.45000000E-02    1.00000000E+00   1.00000000E+00 
SP   1    1.000000
   2.54518072E-02    1.00000000E+00   1.00000000E+00 
D    1    1.000000
   1.29200000E+00    1.00000000E+00 

9    0
S    1    1.000000
   6.29348000E+03    1.96979000E-03 
S    1    1.000000
   9.49044000E+02    1.49613000E-02 
S    1    1.000000
   2.18776000E+02    7.35006000E-02 
S    1    1.000000
   6.36916000E+01    2.48937000E-01 
S    1    1.000000
   1.88282000E+01    6.02460000E-01 
S    1    1.000000
   2.72023000E+00    2.56202000E-01 
SP   3    1.000000
   3.06331000E+01    1.11906000E-01   3.83119000E-02 
   7.02614000E+00    9.21666000E-01   2.37403000E-01 
   2.11205000E+00   -2.56919000E-03   8.17592000E-01 
SP   1    1.000000
   6.84009000E-01    1.00000000E+00   1.00000000E+00 
SP   1    1.000000
   2.00878000E-01    1.00000000E+00   1.00000000E+00 
SP   1    1.000000
   6.39000000E-02    1.00000000E+00   1.00000000E+00 
SP   1    1.000000
   1.92469880E-02    1.00000000E+00   1.00000000E+00 
D    1    1.000000
   9.13000000E-01    1.00000000E+00 

10    0
S    1    1.000000
   6.29348000E+03    1.96979000E-03 
S    1    1.000000
   9.49044000E+02    1.49613000E-02 
S    1    1.000000
   2.18776000E+02    7.35006000E-02 
S    1    1.000000
   6.36916000E+01    2.48937000E-01 
S    1    1.000000
   1.88282000E+01    6.02460000E-01 
S    1    1.000000
   2.72023000E+00    2.56202000E-01 
SP   3    1.000000
   3.06331000E+01    1.11906000E-01   3.83119000E-02 
   7.02614000E+00    9.21666000E-01   2.37403000E-01 
   2.11205000E+00   -2.56919000E-03   8.17592000E-01 
SP   1    1.000000
   6.84009000E-01    1.00000000E+00   1.00000000E+00 
SP   1    1.000000
   2.00878000E-01    1.00000000E+00   1.00000000E+00 
SP   1    1.000000
   6.39000000E-02    1.00000000E+00   1.00000000E+00 
SP   1    1.000000
   1.92469880E-02    1.00000000E+00   1.00000000E+00 
D    1    1.000000
   9.13000000E-01    1.00000000E+00 

11    0
S    1    1.000000
   4.56324000E+03    1.96665000E-03 
S    1    1.000000
   6.82024000E+02    1.52306000E-02 
S    1    1.000000
   1.54973000E+02    7.61269000E-02 
S    1    1.000000
   4.44553000E+01    2.60801000E-01 
S    1    1.000000
   1.30290000E+01    6.16462000E-01 
S    1    1.000000
   1.82773000E+00    2.21006000E-01 
SP   3    1.000000
   2.09642000E+01    1.14660000E-01   4.02487000E-02 
   4.80331000E+00    9.19999000E-01   2.37594000E-01 
   1.45933000E+00   -3.03068000E-03   8.15854000E-01 
SP   1    1.000000
   4.83456000E-01    1.00000000E+00   1.00000000E+00 
SP   1    1.000000
   1.45585000E-01    1.00000000E+00   1.00000000E+00 
SP   1    1.000000
   4.38000000E-02    1.00000000E+00   1.00000000E+00 
SP   1    1.000000
   1.31927711E-02    1.00000000E+00   1.00000000E+00 
D    1    1.000000
   6.26000000E-01    1.00000000E+00 

12    0
S    3    1.000000
   3.38650000E+01    2.54938000E-02 
   5.09479000E+00    1.90373000E-01 
   1.15879000E+00    8.52161000E-01 
S    1    1.000000
   3.25840000E-01    1.00000000E+00 
S    1    1.000000
   1.02741000E-01    1.00000000E+00 
S    1    1.000000
   3.60000000E-02    1.00000000E+00 
P    1    1.000000
   7.50000000E-01    1.00000000E+00 

[MO]
Sym=X
Ene=0.000321
Spin=Alpha
Occup=1
1    -6.9484731e-10
2    9.25893072e-10
3    -4.16806665e-08
4    3.86345983e-08
5    -1.34084785e-06
6    -5.37240861e-06
7    2.59758452e-06
8    1.68376556e-06
9    -4.49983956e-07
10    7.79135579e-16
11    1.60241975e-05
12    -1.75723031e-05
13    4.3707969e-06
14    2.58559162e-15
15    -0.000126415189
16    -2.45052164e-05
17    -0.000134540044
18    -2.5342353e-16
19    -0.00301474218
20    -2.43817139e-05
21    -0.00119622496
22    4.49056096e-14
23    -0.000359498698
24    -0.000254691227
25    0.000197948374
26    1.65873685e-14
27    -8.55391112e-06
28    -1.03358758e-16
29    2.46672325e-06
30    -4.26046674e-16
31    -4.23490629e-06
32    6.83859895e-06
33    -1.3184611e-05
34    -2.45323415e-05
35    8.68623873e-05
36    3.30299593e-06
37    -8.26634846e-06
38    1.07302593e-15
39    1.36246322e-06
40    -1.90508958e-05
41    -0.000100400441
42    -0.000742638669
43    -1.3294893e-06
44    -3.35445177e-06
45    2.46991949e-16
46    5.05297008e-06
47    9.54746007e-07
48    -9.78500953e-05
49    0.000117234583
50    8.88129149e-06
51    5.24214826e-07
52    -3.09969715e-16
53    -8.84928824e-09
54    -1.28842708e-07
55    -2.71995988e-07
56    -3.22351998e-06
57    -6.97716934e-06
58    -0.000119558488
59    -1.46787837e-05
60    -3.49783626e-05
61    2.15416448e-05
62    2.40080155e-15
63    0.000443709226
64    -0.000452739616
65    0.000271969303
66    -7.92219645e-16
67    -0.000885470801
68    0.000486298939
69    -0.000292723491
70    6.07099812e-15
71    -0.00207716784
72    0.00277644738
73    -0.0017434293
74    4.81289573e-14
75    0.00146299737
76    0.000124078165
77    0.000261246079
78    2.13181493e-15
79    -0.000243152507
80    -6.46713096e-16
81    -7.99537166e-05
82    -1.11978451e-15
83    0.000126974275
84    0.00104144231
85    0.00792237965
86    0.0388457675
87    0.132204056
88    0.32720852
89    0.155162071
90    0.470201069
91    0.00158954916
92    -0.000972790585
93    1.03107999e-15
94    0.00492730211
95    -0.000741322444
96    0.000451727589
97    6.10066823e-16
98    -0.000579467351
99    0.000411573115
100    -0.000251042822
101    5.43210889e-15
102    0.00326213051
103    0.000237070168
104    -0.000147718792
105    -6.05991286e-15
106    0.00770239498
107    0.00141976427
108    -0.000696866794
109    6.02984166e-15
110    8.57793905e-05
111    -7.75484577e-16
112    -7.51571712e-05
113    1.6222177e-16
114    -4.73719654e-05
115    -2.71433946e-10
116    1.01428958e-08
117    -3.44007207e-08
118    2.72650237e-07
119    -1.23330942e-06
120    1.22606991e-06
121    4.31096448e-06
122    -1.64501391e-07
123    -1.1474381e-06
124    -1.85565291e-15
125    -1.18333297e-05
126    -4.07263604e-05
127    -1.69197549e-05
128    7.90901424e-16
129    0.000115419444
130    0.00025863919
131    0.000171578698
132    -9.27840617e-15
133    -0.00182996893
134    0.00133237191
135    0.000511149549
136    6.35039076e-14
137    -0.000420254489
138    0.000203319893
139    -0.000302895628
140    4.92206316e-14
141    -1.30906439e-05
142    -9.48603971e-16
143    4.49357179e-06
144    -1.16570046e-15
145    -2.09600789e-06
146    -7.08500144e-05
147    -0.00053896051
148    -0.00264271322
149    -0.00899382486
150    -0.0222609031
151    -0.0105579292
152    -0.0319867115
153    0.000107392787
154    6.3445443e-05
155    -7.9106399e-16
156    -0.000323685522
157    -5.46602925e-05
158    -2.97544959e-05
159    -2.8609157e-15
160    -4.90524292e-05
161    8.23226957e-05
162    3.92410673e-05
163    6.57752323e-16
164    -0.000659464915
165    5.24342318e-05
166    8.19994978e-05
167    -8.41799411e-15
168    -0.00281425932
169    0.000463437945
170    0.000104715668
171    -1.49168938e-14
172    4.61903589e-06
173    -1.70208071e-16
174    8.54785111e-06
175    -3.98330157e-17
176    2.64571335e-06
177    -1.25737117e-09
178    2.33650481e-08
179    -1.19788924e-07
180    5.14966617e-07
181    -6.39548842e-06
182    -2.59261654e-05
183    1.76771727e-05
184    1.7876942e-05
185    -1.57814678e-06
186    1.71305284e-15
187    3.74702036e-05
188    -5.87972632e-05
189    3.30827556e-08
190    -5.72276098e-15
191    1.25346019e-05
192    1.66203436e-05
193    -1.50508472e-05
194    1.35821102e-14
195    0.000200701529
196    -3.18978797e-05
197    0.000206036053
198    -3.93074907e-14
199    -0.00127305734
200    0.00252215869
201    -7.62889923e-05
202    -4.2177543e-14
203    4.7322108e-06
204    -4.11694856e-16
205    -4.06671859e-06
206    -1.23524232e-15
207    2.95259707e-05
208    -1.29885702e-09
209    2.72982252e-08
210    -1.30743077e-07
211    5.96606861e-07
212    -7.18490815e-06
213    -2.92773073e-05
214    2.00125926e-05
215    8.71500578e-06
216    -1.47696189e-05
217    2.98531754e-15
218    4.4053782e-05
219    -2.39917971e-05
220    5.13481752e-05
221    -1.5569035e-15
222    -1.59990716e-05
223    1.05415513e-06
224    -2.15025138e-05
225    1.54794004e-14
226    0.000148016851
227    -7.59454227e-05
228    -1.60385992e-05
229    -3.46894702e-14
230    -0.0019185518
231    0.000361193368
232    -0.00076051351
233    -1.48044106e-14
234    -2.00995897e-05
235    2.03210006e-16
236    -4.1297547e-06
237    9.07095251e-18
238    -2.36878255e-05
239    -5.94672078e-11
240    -9.86021116e-10
241    -1.27335444e-09
242    -2.1527447e-08
243    2.47905241e-08
244    -3.76858217e-07
245    -1.95886338e-07
246    1.82002534e-06
247    8.92048964e-07
248    3.83202e-16
249    -5.83916935e-07
250    -1.49195801e-05
251    -3.74224858e-06
252    8.106294e-16
253    0.000224041044
254    -0.000135507769
255    8.0616213e-05
256    4.52310748e-15
257    0.00330405348
258    -0.000837449493
259    0.000417225767
260    -4.75830339e-14
261    -0.000148741436
262    -0.000131439529
263    -0.000293538558
264    -3.70700332e-14
265    3.06850407e-06
266    -3.22219922e-16
267    1.28388052e-06
268    -6.30612412e-16
269    2.9972194e-06
270    2.06307539e-07
271    2.07233753e-05
272    5.98966264e-05
273    0.000134879813
274    -2.61896341e-06
275    2.10074606e-06
276    -1.09200795e-16
[5D]