[Molden Format]
[Atoms] (Angs)
  C      1    6     -0.00714236     -1.70213747     -0.00000000
  H      2    1     -2.06882847     -1.44022412      0.00000000
  H      3    1     -0.12337987     -2.77567521      0.00000000
  H      4    1      0.04651892      1.98813947     -0.00000000
  C      5    6     -1.21953563      0.40211669      0.00000000
  O      6    8     -2.25921553      1.03043814      0.00000000
  C      7    6      1.28797806      0.34644937     -0.00000000
  O      8    8      2.31273661      1.00537216     -0.00000000
  N      9    7      0.03446295      0.97739857     -0.00000000
  N     10    7     -1.17287765     -0.98229824      0.00000000
  C     11    6      1.20107039     -1.10433419     -0.00000000
  H     12    1      2.11220096     -1.67699125     -0.00000000
[GTO]
1    0
S    1    1.000000
   4.56324000E+03    1.96665000E-03 
S    1    1.000000
   6.82024000E+02    1.52306000E-02 
S    1    1.000000
   1.54973000E+02    7.61269000E-02 
S    1    1.000000
   4.44553000E+01    2.60801000E-01 
S    1    1.000000
   1.30290000E+01    6.16462000E-01 
S    1    1.000000
   1.82773000E+00    2.21006000E-01 
SP   3    1.000000
   2.09642000E+01    1.14660000E-01   4.02487000E-02 
   4.80331000E+00    9.19999000E-01   2.37594000E-01 
   1.45933000E+00   -3.03068000E-03   8.15854000E-01 
SP   1    1.000000
   4.83456000E-01    1.00000000E+00   1.00000000E+00 
SP   1    1.000000
   1.45585000E-01    1.00000000E+00   1.00000000E+00 
SP   1    1.000000
   4.38000000E-02    1.00000000E+00   1.00000000E+00 
SP   1    1.000000
   1.31927711E-02    1.00000000E+00   1.00000000E+00 
D    1    1.000000
   6.26000000E-01    1.00000000E+00 

2    0
S    3    1.000000
   3.38650000E+01    2.54938000E-02 
   5.09479000E+00    1.90373000E-01 
   1.15879000E+00    8.52161000E-01 
S    1    1.000000
   3.25840000E-01    1.00000000E+00 
S    1    1.000000
   1.02741000E-01    1.00000000E+00 
S    1    1.000000
   3.60000000E-02    1.00000000E+00 
P    1    1.000000
   7.50000000E-01    1.00000000E+00 

3    0
S    3    1.000000
   3.38650000E+01    2.54938000E-02 
   5.09479000E+00    1.90373000E-01 
   1.15879000E+00    8.52161000E-01 
S    1    1.000000
   3.25840000E-01    1.00000000E+00 
S    1    1.000000
   1.02741000E-01    1.00000000E+00 
S    1    1.000000
   3.60000000E-02    1.00000000E+00 
P    1    1.000000
   7.50000000E-01    1.00000000E+00 

4    0
S    3    1.000000
   3.38650000E+01    2.54938000E-02 
   5.09479000E+00    1.90373000E-01 
   1.15879000E+00    8.52161000E-01 
S    1    1.000000
   3.25840000E-01    1.00000000E+00 
S    1    1.000000
   1.02741000E-01    1.00000000E+00 
S    1    1.000000
   3.60000000E-02    1.00000000E+00 
P    1    1.000000
   7.50000000E-01    1.00000000E+00 

5    0
S    1    1.000000
   4.56324000E+03    1.96665000E-03 
S    1    1.000000
   6.82024000E+02    1.52306000E-02 
S    1    1.000000
   1.54973000E+02    7.61269000E-02 
S    1    1.000000
   4.44553000E+01    2.60801000E-01 
S    1    1.000000
   1.30290000E+01    6.16462000E-01 
S    1    1.000000
   1.82773000E+00    2.21006000E-01 
SP   3    1.000000
   2.09642000E+01    1.14660000E-01   4.02487000E-02 
   4.80331000E+00    9.19999000E-01   2.37594000E-01 
   1.45933000E+00   -3.03068000E-03   8.15854000E-01 
SP   1    1.000000
   4.83456000E-01    1.00000000E+00   1.00000000E+00 
SP   1    1.000000
   1.45585000E-01    1.00000000E+00   1.00000000E+00 
SP   1    1.000000
   4.38000000E-02    1.00000000E+00   1.00000000E+00 
SP   1    1.000000
   1.31927711E-02    1.00000000E+00   1.00000000E+00 
D    1    1.000000
   6.26000000E-01    1.00000000E+00 

6    0
S    1    1.000000
   8.58850000E+03    1.89515000E-03 
S    1    1.000000
   1.29723000E+03    1.43859000E-02 
S    1    1.000000
   2.99296000E+02    7.07320000E-02 
S    1    1.000000
   8.73771000E+01    2.40001000E-01 
S    1    1.000000
   2.56789000E+01    5.94797000E-01 
S    1    1.000000
   3.74004000E+00    2.80802000E-01 
SP   3    1.000000
   4.21175000E+01    1.13889000E-01   3.65114000E-02 
   9.62837000E+00    9.20811000E-01   2.37153000E-01 
   2.85332000E+00   -3.27447000E-03   8.19702000E-01 
SP   1    1.000000
   9.05661000E-01    1.00000000E+00   1.00000000E+00 
SP   1    1.000000
   2.55611000E-01    1.00000000E+00   1.00000000E+00 
SP   1    1.000000
   8.45000000E-02    1.00000000E+00   1.00000000E+00 
SP   1    1.000000
   2.54518072E-02    1.00000000E+00   1.00000000E+00 
D    1    1.000000
   1.29200000E+00    1.00000000E+00 

7    0
S    1    1.000000
   4.56324000E+03    1.96665000E-03 
S    1    1.000000
   6.82024000E+02    1.52306000E-02 
S    1    1.000000
   1.54973000E+02    7.61269000E-02 
S    1    1.000000
   4.44553000E+01    2.60801000E-01 
S    1    1.000000
   1.30290000E+01    6.16462000E-01 
S    1    1.000000
   1.82773000E+00    2.21006000E-01 
SP   3    1.000000
   2.09642000E+01    1.14660000E-01   4.02487000E-02 
   4.80331000E+00    9.19999000E-01   2.37594000E-01 
   1.45933000E+00   -3.03068000E-03   8.15854000E-01 
SP   1    1.000000
   4.83456000E-01    1.00000000E+00   1.00000000E+00 
SP   1    1.000000
   1.45585000E-01    1.00000000E+00   1.00000000E+00 
SP   1    1.000000
   4.38000000E-02    1.00000000E+00   1.00000000E+00 
SP   1    1.000000
   1.31927711E-02    1.00000000E+00   1.00000000E+00 
D    1    1.000000
   6.26000000E-01    1.00000000E+00 

8    0
S    1    1.000000
   8.58850000E+03    1.89515000E-03 
S    1    1.000000
   1.29723000E+03    1.43859000E-02 
S    1    1.000000
   2.99296000E+02    7.07320000E-02 
S    1    1.000000
   8.73771000E+01    2.40001000E-01 
S    1    1.000000
   2.56789000E+01    5.94797000E-01 
S    1    1.000000
   3.74004000E+00    2.80802000E-01 
SP   3    1.000000
   4.21175000E+01    1.13889000E-01   3.65114000E-02 
   9.62837000E+00    9.20811000E-01   2.37153000E-01 
   2.85332000E+00   -3.27447000E-03   8.19702000E-01 
SP   1    1.000000
   9.05661000E-01    1.00000000E+00   1.00000000E+00 
SP   1    1.000000
   2.55611000E-01    1.00000000E+00   1.00000000E+00 
SP   1    1.000000
   8.45000000E-02    1.00000000E+00   1.00000000E+00 
SP   1    1.000000
   2.54518072E-02    1.00000000E+00   1.00000000E+00 
D    1    1.000000
   1.29200000E+00    1.00000000E+00 

9    0
S    1    1.000000
   6.29348000E+03    1.96979000E-03 
S    1    1.000000
   9.49044000E+02    1.49613000E-02 
S    1    1.000000
   2.18776000E+02    7.35006000E-02 
S    1    1.000000
   6.36916000E+01    2.48937000E-01 
S    1    1.000000
   1.88282000E+01    6.02460000E-01 
S    1    1.000000
   2.72023000E+00    2.56202000E-01 
SP   3    1.000000
   3.06331000E+01    1.11906000E-01   3.83119000E-02 
   7.02614000E+00    9.21666000E-01   2.37403000E-01 
   2.11205000E+00   -2.56919000E-03   8.17592000E-01 
SP   1    1.000000
   6.84009000E-01    1.00000000E+00   1.00000000E+00 
SP   1    1.000000
   2.00878000E-01    1.00000000E+00   1.00000000E+00 
SP   1    1.000000
   6.39000000E-02    1.00000000E+00   1.00000000E+00 
SP   1    1.000000
   1.92469880E-02    1.00000000E+00   1.00000000E+00 
D    1    1.000000
   9.13000000E-01    1.00000000E+00 

10    0
S    1    1.000000
   6.29348000E+03    1.96979000E-03 
S    1    1.000000
   9.49044000E+02    1.49613000E-02 
S    1    1.000000
   2.18776000E+02    7.35006000E-02 
S    1    1.000000
   6.36916000E+01    2.48937000E-01 
S    1    1.000000
   1.88282000E+01    6.02460000E-01 
S    1    1.000000
   2.72023000E+00    2.56202000E-01 
SP   3    1.000000
   3.06331000E+01    1.11906000E-01   3.83119000E-02 
   7.02614000E+00    9.21666000E-01   2.37403000E-01 
   2.11205000E+00   -2.56919000E-03   8.17592000E-01 
SP   1    1.000000
   6.84009000E-01    1.00000000E+00   1.00000000E+00 
SP   1    1.000000
   2.00878000E-01    1.00000000E+00   1.00000000E+00 
SP   1    1.000000
   6.39000000E-02    1.00000000E+00   1.00000000E+00 
SP   1    1.000000
   1.92469880E-02    1.00000000E+00   1.00000000E+00 
D    1    1.000000
   9.13000000E-01    1.00000000E+00 

11    0
S    1    1.000000
   4.56324000E+03    1.96665000E-03 
S    1    1.000000
   6.82024000E+02    1.52306000E-02 
S    1    1.000000
   1.54973000E+02    7.61269000E-02 
S    1    1.000000
   4.44553000E+01    2.60801000E-01 
S    1    1.000000
   1.30290000E+01    6.16462000E-01 
S    1    1.000000
   1.82773000E+00    2.21006000E-01 
SP   3    1.000000
   2.09642000E+01    1.14660000E-01   4.02487000E-02 
   4.80331000E+00    9.19999000E-01   2.37594000E-01 
   1.45933000E+00   -3.03068000E-03   8.15854000E-01 
SP   1    1.000000
   4.83456000E-01    1.00000000E+00   1.00000000E+00 
SP   1    1.000000
   1.45585000E-01    1.00000000E+00   1.00000000E+00 
SP   1    1.000000
   4.38000000E-02    1.00000000E+00   1.00000000E+00 
SP   1    1.000000
   1.31927711E-02    1.00000000E+00   1.00000000E+00 
D    1    1.000000
   6.26000000E-01    1.00000000E+00 

12    0
S    3    1.000000
   3.38650000E+01    2.54938000E-02 
   5.09479000E+00    1.90373000E-01 
   1.15879000E+00    8.52161000E-01 
S    1    1.000000
   3.25840000E-01    1.00000000E+00 
S    1    1.000000
   1.02741000E-01    1.00000000E+00 
S    1    1.000000
   3.60000000E-02    1.00000000E+00 
P    1    1.000000
   7.50000000E-01    1.00000000E+00 

[MO]
Sym=X
Ene=0.000111
Spin=Alpha
Occup=1
1    5.47520039e-10
2    4.78490203e-11
3    3.11313425e-08
4    -1.34274048e-08
5    9.31999111e-07
6    3.7739802e-06
7    -1.68314124e-06
8    -1.74998764e-06
9    2.41784598e-07
10    -7.77794247e-16
11    -1.17375411e-05
12    1.85566779e-05
13    -3.05258509e-06
14    -2.6319076e-15
15    9.73951955e-05
16    2.1795296e-05
17    0.000116632075
18    -1.7207968e-16
19    0.00315946711
20    6.08713457e-05
21    0.00116605486
22    -4.03746494e-14
23    0.000411715448
24    0.000275404206
25    -0.000192139723
26    -2.53772797e-14
27    9.65437147e-06
28    1.01305941e-16
29    -2.14677431e-06
30    4.09604807e-16
31    3.53743037e-06
32    -6.74672145e-06
33    1.51532807e-05
34    2.36899069e-05
35    -7.58749475e-05
36    -3.20708562e-06
37    8.34960385e-06
38    -1.08266909e-15
39    -1.4746073e-06
40    1.8259698e-05
41    8.59769558e-05
42    0.000710900363
43    1.571506e-06
44    3.06257501e-06
45    -2.3163285e-16
46    -4.41065777e-06
47    -9.48923249e-07
48    9.75837431e-05
49    -0.000106283392
50    -9.22806548e-06
51    -6.06353764e-07
52    3.02716922e-16
53    8.69236664e-09
54    1.2783581e-07
55    2.64798104e-07
56    3.19988624e-06
57    6.75733989e-06
58    0.000117855995
59    1.48565666e-05
60    3.46095056e-05
61    -2.12956513e-05
62    -2.31139663e-15
63    -0.000437909665
64    0.000449041139
65    -0.000269285445
66    5.48248796e-16
67    0.000873596768
68    -0.000504054005
69    0.000299305944
70    -5.72282225e-15
71    0.00197623141
72    -0.00284708491
73    0.00173798839
74    -4.61718145e-14
75    -0.00153888449
76    -0.000143367845
77    -0.000295271664
78    2.26897852e-15
79    0.000240677367
80    6.82090903e-16
81    7.9349781e-05
82    1.13802375e-15
83    -0.000125400488
84    -0.00103195302
85    -0.00785019323
86    -0.0384918179
87    -0.13099945
88    -0.324227149
89    -0.153748494
90    -0.46591661
91    -0.00157521574
92    0.000963877811
93    -1.07381087e-15
94    -0.00488169138
95    0.000735055595
96    -0.000447509354
97    -4.83655742e-16
98    0.000567730264
99    -0.000411958904
100    0.000250368249
101    -5.78972311e-15
102    -0.00327009262
103    -0.000237046567
104    0.00015345884
105    6.52430698e-15
106    -0.00783955031
107    -0.00143924482
108    0.000697673491
109    -7.69870367e-15
110    -8.48562597e-05
111    7.73209168e-16
112    7.45658306e-05
113    -1.32960101e-16
114    4.69349049e-05
115    -3.86688861e-10
116    -2.00851114e-08
117    1.45606258e-08
118    -5.24266966e-07
119    6.93948556e-07
120    -1.06164191e-05
121    -5.49613861e-06
122    2.84668092e-06
123    3.21290704e-06
124    1.80156412e-15
125    4.63796732e-05
126    7.64604378e-05
127    4.06826798e-05
128    -5.20947668e-16
129    -0.000181316111
130    -0.000283520054
131    -0.000187688938
132    8.8613051e-15
133    0.001780275
134    -0.00158482475
135    -0.000644832576
136    -5.68458305e-14
137    0.000432246715
138    -0.000238104006
139    0.000362152512
140    -5.4111628e-14
141    3.36976952e-05
142    9.87778107e-16
143    -1.05877572e-05
144    1.18822913e-15
145    1.14494486e-05
146    0.000157146906
147    0.00119543171
148    0.00586158447
149    0.019948608
150    0.0493741363
151    0.0234132536
152    0.070950178
153    -0.000236154155
154    -0.000140958503
155    8.74403104e-16
156    0.000732023602
157    0.000114445038
158    6.56527644e-05
159    2.78772725e-15
160    -4.62386775e-06
161    -0.000113963873
162    -5.7506298e-05
163    -1.04258472e-16
164    0.000905004816
165    -6.45334319e-05
166    -9.35154641e-05
167    7.21443669e-15
168    0.00332413252
169    -0.000558784915
170    -0.000135061544
171    1.44320002e-14
172    -1.22179649e-05
173    1.73693382e-16
174    -1.74073379e-05
175    2.44888265e-17
176    -6.41260139e-06
177    1.18077216e-09
178    -2.11233696e-08
179    1.10751635e-07
180    -4.66823779e-07
181    5.85275309e-06
182    2.36900039e-05
183    -1.61042234e-05
184    -1.91613372e-05
185    1.67265486e-06
186    -1.6338131e-15
187    -3.51231734e-05
188    6.30130845e-05
189    -7.54626131e-07
190    5.6337083e-15
191    -2.16754891e-06
192    -2.0496211e-05
193    1.01401337e-05
194    -1.28960536e-14
195    -0.000210918704
196    2.34130033e-05
197    -0.000196055047
198    3.64337778e-14
199    0.00108026773
200    -0.00273502259
201    8.02486985e-05
202    3.94850622e-14
203    -5.72030667e-06
204    4.60444176e-16
205    3.50649213e-06
206    1.24538511e-15
207    -2.68894102e-05
208    1.27291651e-09
209    -2.673984e-08
210    1.2805823e-07
211    -5.84431261e-07
212    7.04158746e-06
213    2.87037354e-05
214    -1.96335778e-05
215    -8.67839885e-06
216    1.46831598e-05
217    -2.92950273e-15
218    -4.34338975e-05
219    2.41133766e-05
220    -5.10982385e-05
221    1.2530996e-15
222    2.56715518e-05
223    7.03653283e-06
224    2.40309029e-05
225    -1.4875338e-14
226    -9.1032017e-05
227    9.60901674e-05
228    1.86198881e-05
229    3.17516335e-14
230    0.00190314907
231    -0.000336559644
232    0.000743423656
233    1.54826721e-14
234    1.95818874e-05
235    -1.94564564e-16
236    4.13222904e-06
237    1.1016781e-17
238    2.33538967e-05
239    1.75060703e-10
240    2.5269847e-09
241    4.54415717e-09
242    4.9892202e-08
243    -1.3641778e-07
244    -4.87446669e-07
245    7.9125392e-07
246    -2.46211627e-06
247    -2.04063429e-06
248    -2.99802253e-16
249    1.2188216e-06
250    1.65551944e-05
251    9.59087673e-06
252    -1.13350981e-15
253    -0.000207126439
254    0.000123358652
255    -8.16791386e-05
256    -3.57413269e-15
257    -0.00356414497
258    0.000971706561
259    -0.000419555967
260    4.08399345e-14
261    0.000188803896
262    0.000156029054
263    0.000305410459
264    4.68953119e-14
265    2.67902787e-07
266    3.36259976e-16
267    -1.270396e-06
268    6.08436751e-16
269    -6.27384375e-06
270    2.69684129e-07
271    -1.60749182e-05
272    -6.51044733e-05
273    -0.000213650874
274    1.36916648e-06
275    -1.57848295e-06
276    9.67286705e-17
[5D]