[Molden Format]
[Atoms] (Angs)
  C      1    6     -0.00714236     -1.70213747     -0.00000000
  H      2    1     -2.06882847     -1.44022412      0.00000000
  H      3    1     -0.12337987     -2.77567521      0.00000000
  H      4    1      0.04651892      1.98813947     -0.00000000
  C      5    6     -1.21953563      0.40211669      0.00000000
  O      6    8     -2.25921553      1.03043814      0.00000000
  C      7    6      1.28797806      0.34644937     -0.00000000
  O      8    8      2.31273661      1.00537216     -0.00000000
  N      9    7      0.03446295      0.97739857     -0.00000000
  N     10    7     -1.17287765     -0.98229824      0.00000000
  C     11    6      1.20107039     -1.10433419     -0.00000000
  H     12    1      2.11220096     -1.67699125     -0.00000000
[GTO]
1    0
S    1    1.000000
   4.56324000E+03    1.96665000E-03 
S    1    1.000000
   6.82024000E+02    1.52306000E-02 
S    1    1.000000
   1.54973000E+02    7.61269000E-02 
S    1    1.000000
   4.44553000E+01    2.60801000E-01 
S    1    1.000000
   1.30290000E+01    6.16462000E-01 
S    1    1.000000
   1.82773000E+00    2.21006000E-01 
SP   3    1.000000
   2.09642000E+01    1.14660000E-01   4.02487000E-02 
   4.80331000E+00    9.19999000E-01   2.37594000E-01 
   1.45933000E+00   -3.03068000E-03   8.15854000E-01 
SP   1    1.000000
   4.83456000E-01    1.00000000E+00   1.00000000E+00 
SP   1    1.000000
   1.45585000E-01    1.00000000E+00   1.00000000E+00 
SP   1    1.000000
   4.38000000E-02    1.00000000E+00   1.00000000E+00 
SP   1    1.000000
   1.31927711E-02    1.00000000E+00   1.00000000E+00 
D    1    1.000000
   6.26000000E-01    1.00000000E+00 

2    0
S    3    1.000000
   3.38650000E+01    2.54938000E-02 
   5.09479000E+00    1.90373000E-01 
   1.15879000E+00    8.52161000E-01 
S    1    1.000000
   3.25840000E-01    1.00000000E+00 
S    1    1.000000
   1.02741000E-01    1.00000000E+00 
S    1    1.000000
   3.60000000E-02    1.00000000E+00 
P    1    1.000000
   7.50000000E-01    1.00000000E+00 

3    0
S    3    1.000000
   3.38650000E+01    2.54938000E-02 
   5.09479000E+00    1.90373000E-01 
   1.15879000E+00    8.52161000E-01 
S    1    1.000000
   3.25840000E-01    1.00000000E+00 
S    1    1.000000
   1.02741000E-01    1.00000000E+00 
S    1    1.000000
   3.60000000E-02    1.00000000E+00 
P    1    1.000000
   7.50000000E-01    1.00000000E+00 

4    0
S    3    1.000000
   3.38650000E+01    2.54938000E-02 
   5.09479000E+00    1.90373000E-01 
   1.15879000E+00    8.52161000E-01 
S    1    1.000000
   3.25840000E-01    1.00000000E+00 
S    1    1.000000
   1.02741000E-01    1.00000000E+00 
S    1    1.000000
   3.60000000E-02    1.00000000E+00 
P    1    1.000000
   7.50000000E-01    1.00000000E+00 

5    0
S    1    1.000000
   4.56324000E+03    1.96665000E-03 
S    1    1.000000
   6.82024000E+02    1.52306000E-02 
S    1    1.000000
   1.54973000E+02    7.61269000E-02 
S    1    1.000000
   4.44553000E+01    2.60801000E-01 
S    1    1.000000
   1.30290000E+01    6.16462000E-01 
S    1    1.000000
   1.82773000E+00    2.21006000E-01 
SP   3    1.000000
   2.09642000E+01    1.14660000E-01   4.02487000E-02 
   4.80331000E+00    9.19999000E-01   2.37594000E-01 
   1.45933000E+00   -3.03068000E-03   8.15854000E-01 
SP   1    1.000000
   4.83456000E-01    1.00000000E+00   1.00000000E+00 
SP   1    1.000000
   1.45585000E-01    1.00000000E+00   1.00000000E+00 
SP   1    1.000000
   4.38000000E-02    1.00000000E+00   1.00000000E+00 
SP   1    1.000000
   1.31927711E-02    1.00000000E+00   1.00000000E+00 
D    1    1.000000
   6.26000000E-01    1.00000000E+00 

6    0
S    1    1.000000
   8.58850000E+03    1.89515000E-03 
S    1    1.000000
   1.29723000E+03    1.43859000E-02 
S    1    1.000000
   2.99296000E+02    7.07320000E-02 
S    1    1.000000
   8.73771000E+01    2.40001000E-01 
S    1    1.000000
   2.56789000E+01    5.94797000E-01 
S    1    1.000000
   3.74004000E+00    2.80802000E-01 
SP   3    1.000000
   4.21175000E+01    1.13889000E-01   3.65114000E-02 
   9.62837000E+00    9.20811000E-01   2.37153000E-01 
   2.85332000E+00   -3.27447000E-03   8.19702000E-01 
SP   1    1.000000
   9.05661000E-01    1.00000000E+00   1.00000000E+00 
SP   1    1.000000
   2.55611000E-01    1.00000000E+00   1.00000000E+00 
SP   1    1.000000
   8.45000000E-02    1.00000000E+00   1.00000000E+00 
SP   1    1.000000
   2.54518072E-02    1.00000000E+00   1.00000000E+00 
D    1    1.000000
   1.29200000E+00    1.00000000E+00 

7    0
S    1    1.000000
   4.56324000E+03    1.96665000E-03 
S    1    1.000000
   6.82024000E+02    1.52306000E-02 
S    1    1.000000
   1.54973000E+02    7.61269000E-02 
S    1    1.000000
   4.44553000E+01    2.60801000E-01 
S    1    1.000000
   1.30290000E+01    6.16462000E-01 
S    1    1.000000
   1.82773000E+00    2.21006000E-01 
SP   3    1.000000
   2.09642000E+01    1.14660000E-01   4.02487000E-02 
   4.80331000E+00    9.19999000E-01   2.37594000E-01 
   1.45933000E+00   -3.03068000E-03   8.15854000E-01 
SP   1    1.000000
   4.83456000E-01    1.00000000E+00   1.00000000E+00 
SP   1    1.000000
   1.45585000E-01    1.00000000E+00   1.00000000E+00 
SP   1    1.000000
   4.38000000E-02    1.00000000E+00   1.00000000E+00 
SP   1    1.000000
   1.31927711E-02    1.00000000E+00   1.00000000E+00 
D    1    1.000000
   6.26000000E-01    1.00000000E+00 

8    0
S    1    1.000000
   8.58850000E+03    1.89515000E-03 
S    1    1.000000
   1.29723000E+03    1.43859000E-02 
S    1    1.000000
   2.99296000E+02    7.07320000E-02 
S    1    1.000000
   8.73771000E+01    2.40001000E-01 
S    1    1.000000
   2.56789000E+01    5.94797000E-01 
S    1    1.000000
   3.74004000E+00    2.80802000E-01 
SP   3    1.000000
   4.21175000E+01    1.13889000E-01   3.65114000E-02 
   9.62837000E+00    9.20811000E-01   2.37153000E-01 
   2.85332000E+00   -3.27447000E-03   8.19702000E-01 
SP   1    1.000000
   9.05661000E-01    1.00000000E+00   1.00000000E+00 
SP   1    1.000000
   2.55611000E-01    1.00000000E+00   1.00000000E+00 
SP   1    1.000000
   8.45000000E-02    1.00000000E+00   1.00000000E+00 
SP   1    1.000000
   2.54518072E-02    1.00000000E+00   1.00000000E+00 
D    1    1.000000
   1.29200000E+00    1.00000000E+00 

9    0
S    1    1.000000
   6.29348000E+03    1.96979000E-03 
S    1    1.000000
   9.49044000E+02    1.49613000E-02 
S    1    1.000000
   2.18776000E+02    7.35006000E-02 
S    1    1.000000
   6.36916000E+01    2.48937000E-01 
S    1    1.000000
   1.88282000E+01    6.02460000E-01 
S    1    1.000000
   2.72023000E+00    2.56202000E-01 
SP   3    1.000000
   3.06331000E+01    1.11906000E-01   3.83119000E-02 
   7.02614000E+00    9.21666000E-01   2.37403000E-01 
   2.11205000E+00   -2.56919000E-03   8.17592000E-01 
SP   1    1.000000
   6.84009000E-01    1.00000000E+00   1.00000000E+00 
SP   1    1.000000
   2.00878000E-01    1.00000000E+00   1.00000000E+00 
SP   1    1.000000
   6.39000000E-02    1.00000000E+00   1.00000000E+00 
SP   1    1.000000
   1.92469880E-02    1.00000000E+00   1.00000000E+00 
D    1    1.000000
   9.13000000E-01    1.00000000E+00 

10    0
S    1    1.000000
   6.29348000E+03    1.96979000E-03 
S    1    1.000000
   9.49044000E+02    1.49613000E-02 
S    1    1.000000
   2.18776000E+02    7.35006000E-02 
S    1    1.000000
   6.36916000E+01    2.48937000E-01 
S    1    1.000000
   1.88282000E+01    6.02460000E-01 
S    1    1.000000
   2.72023000E+00    2.56202000E-01 
SP   3    1.000000
   3.06331000E+01    1.11906000E-01   3.83119000E-02 
   7.02614000E+00    9.21666000E-01   2.37403000E-01 
   2.11205000E+00   -2.56919000E-03   8.17592000E-01 
SP   1    1.000000
   6.84009000E-01    1.00000000E+00   1.00000000E+00 
SP   1    1.000000
   2.00878000E-01    1.00000000E+00   1.00000000E+00 
SP   1    1.000000
   6.39000000E-02    1.00000000E+00   1.00000000E+00 
SP   1    1.000000
   1.92469880E-02    1.00000000E+00   1.00000000E+00 
D    1    1.000000
   9.13000000E-01    1.00000000E+00 

11    0
S    1    1.000000
   4.56324000E+03    1.96665000E-03 
S    1    1.000000
   6.82024000E+02    1.52306000E-02 
S    1    1.000000
   1.54973000E+02    7.61269000E-02 
S    1    1.000000
   4.44553000E+01    2.60801000E-01 
S    1    1.000000
   1.30290000E+01    6.16462000E-01 
S    1    1.000000
   1.82773000E+00    2.21006000E-01 
SP   3    1.000000
   2.09642000E+01    1.14660000E-01   4.02487000E-02 
   4.80331000E+00    9.19999000E-01   2.37594000E-01 
   1.45933000E+00   -3.03068000E-03   8.15854000E-01 
SP   1    1.000000
   4.83456000E-01    1.00000000E+00   1.00000000E+00 
SP   1    1.000000
   1.45585000E-01    1.00000000E+00   1.00000000E+00 
SP   1    1.000000
   4.38000000E-02    1.00000000E+00   1.00000000E+00 
SP   1    1.000000
   1.31927711E-02    1.00000000E+00   1.00000000E+00 
D    1    1.000000
   6.26000000E-01    1.00000000E+00 

12    0
S    3    1.000000
   3.38650000E+01    2.54938000E-02 
   5.09479000E+00    1.90373000E-01 
   1.15879000E+00    8.52161000E-01 
S    1    1.000000
   3.25840000E-01    1.00000000E+00 
S    1    1.000000
   1.02741000E-01    1.00000000E+00 
S    1    1.000000
   3.60000000E-02    1.00000000E+00 
P    1    1.000000
   7.50000000E-01    1.00000000E+00 

[MO]
Sym=X
Ene=0.062664
Spin=Alpha
Occup=1
1    -8.09318815e-10
2    1.70075105e-09
3    -4.99175977e-08
4    5.86202059e-08
5    -1.66144574e-06
6    -6.62516384e-06
7    3.31664363e-06
8    1.62236451e-06
9    -6.14403284e-07
10    7.76326572e-16
11    1.93757738e-05
12    -1.66967501e-05
13    5.4042326e-06
14    2.53563108e-15
15    -0.000149015466
16    -2.65523651e-05
17    -0.000148204753
18    -5.92772232e-16
19    -0.00288386751
20    4.94942158e-06
21    -0.00121441462
22    4.83088219e-14
23    -0.000315908126
24    -0.000236841444
25    0.000201611696
26    9.46846002e-15
27    -7.63037478e-06
28    -1.04486943e-16
29    2.71054696e-06
30    -4.3708509e-16
31    -4.77212551e-06
32    6.87806673e-06
33    -1.15430041e-05
34    -2.50844491e-05
35    9.52248684e-05
36    3.36331119e-06
37    -8.15850886e-06
38    1.05995936e-15
39    1.26590319e-06
40    -1.95893049e-05
41    -0.000111445981
42    -0.000764344053
43    -1.12913168e-06
44    -3.57138005e-06
45    2.58055919e-16
46    5.54195459e-06
47    9.54649207e-07
48    -9.75756834e-05
49    0.000125416691
50    8.55944304e-06
51    4.55850958e-07
52    -3.14230815e-16
53    -8.93080321e-09
54    -1.29006649e-07
55    -2.76402371e-07
56    -3.22637455e-06
57    -7.11837098e-06
58    -0.000120325512
59    -1.44633201e-05
60    -3.50993189e-05
61    2.16312102e-05
62    2.46040529e-15
63    0.000446140551
64    -0.000453444039
65    0.000272762379
66    -9.83568247e-16
67    -0.000890563219
68    0.000469662749
69    -0.000285995541
70    6.31945575e-15
71    -0.00214761526
72    0.00270606654
73    -0.00173909652
74    4.9455788e-14
75    0.00139495972
76    0.000108018616
77    0.000232707005
78    5.64398807e-15
79    -0.000243922113
80    -6.15170651e-16
81    -8.00387218e-05
82    -1.09960383e-15
83    0.000127601316
84    0.00104384849
85    0.007940684
86    0.0389355177
87    0.132509508
88    0.327964476
89    0.155520395
90    0.471287548
91    0.00159310161
92    -0.000975077394
93    9.91736016e-16
94    0.00493925846
95    -0.000742644707
96    0.000452853117
97    7.08217594e-16
98    -0.000585975079
99    0.000409213268
100    -0.000250331769
101    5.11877154e-15
102    0.00323950047
103    0.000235907649
104    -0.000142387795
105    -5.65797053e-15
106    0.00755421935
107    0.00139709502
108    -0.000692748285
109    4.66388317e-15
110    8.6090877e-05
111    -7.73441485e-16
112    -7.52559971e-05
113    1.84837068e-16
114    -4.74857559e-05
115    -7.96902854e-10
116    2.13369288e-09
117    -5.01111118e-08
118    6.98745188e-08
119    -1.65891703e-06
120    -6.29693273e-06
121    3.34075972e-06
122    1.98337971e-06
123    5.11669909e-07
124    -1.88970308e-15
125    1.58796871e-05
126    -1.1918588e-05
127    2.18657681e-06
128    1.00305569e-15
129    6.2094558e-05
130    0.000237433378
131    0.000157827549
132    -9.56605409e-15
133    -0.00186062905
134    0.00112364589
135    0.000401590197
136    6.85171759e-14
137    -0.000408560528
138    0.000174462293
139    -0.000253951563
140    4.50601464e-14
141    3.47035668e-06
142    -9.12518159e-16
143    -4.07163664e-07
144    -1.14185732e-15
145    5.40178506e-06
146    -1.41703239e-06
147    -1.07751925e-05
148    -5.28651966e-05
149    -0.000179796768
150    -0.00044606183
151    -0.000214739926
152    -0.000637394343
153    3.7852545e-06
154    1.08074104e-06
155    -7.2040958e-16
156    4.79860036e-06
157    -6.53073174e-06
158    -8.69967007e-07
159    -2.90524537e-15
160    -9.17753898e-05
161    5.65839637e-05
162    2.4424356e-05
163    1.09754149e-15
164    -0.000459625998
165    4.24876277e-05
166    7.23724321e-05
167    -9.33948123e-15
168    -0.00239208574
169    0.000384804038
170    7.99022207e-05
171    -1.52307103e-14
172    -1.48685897e-06
173    -1.66569898e-16
174    1.41331197e-06
175    -5.19174021e-17
176    -3.8283229e-07
177    -1.31242203e-09
178    2.50430552e-08
179    -1.2642624e-07
180    5.50938263e-07
181    -6.79807214e-06
182    -2.75869932e-05
183    1.88482128e-05
184    1.67597073e-05
185    -1.49462938e-06
186    1.76794675e-15
187    3.91622524e-05
188    -5.51295258e-05
189    -5.44671289e-07
190    -5.76552816e-15
191    2.07708726e-05
192    1.34349201e-05
193    -1.89068264e-05
194    1.40636077e-14
195    0.000191522598
196    -3.853099e-05
197    0.000212999004
198    -4.14119885e-14
199    -0.00142103962
200    0.0023391941
201    -7.27391048e-05
202    -4.41226635e-14
203    3.91766625e-06
204    -3.70619817e-16
205    -4.49490896e-06
206    -1.22096742e-15
207    3.14893752e-05
208    -1.31314946e-09
209    2.76091701e-08
210    -1.32240731e-07
211    6.03380202e-07
212    -7.26382996e-06
213    -2.95905465e-05
214    2.02162603e-05
215    8.70087908e-06
216    -1.4765226e-05
217    3.01511983e-15
218    4.43304572e-05
219    -2.37749135e-05
220    5.12923597e-05
221    -1.79233722e-15
222    -8.17660592e-06
223    7.52542703e-06
224    -1.93714052e-05
225    1.58858073e-14
226    0.000192895089
227    -5.9441265e-05
228    -1.38923734e-05
229    -3.68683119e-14
230    -0.00192132068
231    0.000379112484
232    -0.000770403859
233    -1.41876921e-14
234    -2.0413842e-05
235    2.09117933e-16
236    -4.10719386e-06
237    2.5105804e-17
238    -2.3837087e-05
239    3.33607253e-11
240    2.52420519e-10
241    1.35124024e-09
242    1.28557151e-09
243    -6.46896618e-08
244    -1.06684871e-06
245    2.81676396e-07
246    1.29696726e-06
247    -3.18289998e-08
248    4.48053128e-16
249    -7.27714086e-08
250    -1.35359352e-05
251    9.58176318e-07
252    5.48126772e-16
253    0.000236464556
254    -0.000144557744
255    7.93636088e-05
256    5.26021313e-15
257    0.00307938714
258    -0.000725804549
259    0.000413281266
260    -5.27437017e-14
261    -0.000115930551
262    -0.000111100815
263    -0.000282572389
264    -2.90202491e-14
265    5.72397713e-06
266    -3.09375236e-16
267    1.28827669e-06
268    -6.45221251e-16
269    3.59373885e-07
270    5.86306609e-07
271    2.43411521e-05
272    5.54293025e-05
273    7.11521079e-05
274    -3.60636365e-06
275    2.5083443e-06
276    -1.18640433e-16
[5D]