[Molden Format]
[Atoms] (Angs)
  C      1    6     -0.00714236     -1.70213747     -0.00000000
  H      2    1     -2.06882847     -1.44022412      0.00000000
  H      3    1     -0.12337987     -2.77567521      0.00000000
  H      4    1      0.04651892      1.98813947     -0.00000000
  C      5    6     -1.21953563      0.40211669      0.00000000
  O      6    8     -2.25921553      1.03043814      0.00000000
  C      7    6      1.28797806      0.34644937     -0.00000000
  O      8    8      2.31273661      1.00537216     -0.00000000
  N      9    7      0.03446295      0.97739857     -0.00000000
  N     10    7     -1.17287765     -0.98229824      0.00000000
  C     11    6      1.20107039     -1.10433419     -0.00000000
  H     12    1      2.11220096     -1.67699125     -0.00000000
[GTO]
1    0
S    1    1.000000
   4.56324000E+03    1.96665000E-03 
S    1    1.000000
   6.82024000E+02    1.52306000E-02 
S    1    1.000000
   1.54973000E+02    7.61269000E-02 
S    1    1.000000
   4.44553000E+01    2.60801000E-01 
S    1    1.000000
   1.30290000E+01    6.16462000E-01 
S    1    1.000000
   1.82773000E+00    2.21006000E-01 
SP   3    1.000000
   2.09642000E+01    1.14660000E-01   4.02487000E-02 
   4.80331000E+00    9.19999000E-01   2.37594000E-01 
   1.45933000E+00   -3.03068000E-03   8.15854000E-01 
SP   1    1.000000
   4.83456000E-01    1.00000000E+00   1.00000000E+00 
SP   1    1.000000
   1.45585000E-01    1.00000000E+00   1.00000000E+00 
SP   1    1.000000
   4.38000000E-02    1.00000000E+00   1.00000000E+00 
SP   1    1.000000
   1.31927711E-02    1.00000000E+00   1.00000000E+00 
D    1    1.000000
   6.26000000E-01    1.00000000E+00 

2    0
S    3    1.000000
   3.38650000E+01    2.54938000E-02 
   5.09479000E+00    1.90373000E-01 
   1.15879000E+00    8.52161000E-01 
S    1    1.000000
   3.25840000E-01    1.00000000E+00 
S    1    1.000000
   1.02741000E-01    1.00000000E+00 
S    1    1.000000
   3.60000000E-02    1.00000000E+00 
P    1    1.000000
   7.50000000E-01    1.00000000E+00 

3    0
S    3    1.000000
   3.38650000E+01    2.54938000E-02 
   5.09479000E+00    1.90373000E-01 
   1.15879000E+00    8.52161000E-01 
S    1    1.000000
   3.25840000E-01    1.00000000E+00 
S    1    1.000000
   1.02741000E-01    1.00000000E+00 
S    1    1.000000
   3.60000000E-02    1.00000000E+00 
P    1    1.000000
   7.50000000E-01    1.00000000E+00 

4    0
S    3    1.000000
   3.38650000E+01    2.54938000E-02 
   5.09479000E+00    1.90373000E-01 
   1.15879000E+00    8.52161000E-01 
S    1    1.000000
   3.25840000E-01    1.00000000E+00 
S    1    1.000000
   1.02741000E-01    1.00000000E+00 
S    1    1.000000
   3.60000000E-02    1.00000000E+00 
P    1    1.000000
   7.50000000E-01    1.00000000E+00 

5    0
S    1    1.000000
   4.56324000E+03    1.96665000E-03 
S    1    1.000000
   6.82024000E+02    1.52306000E-02 
S    1    1.000000
   1.54973000E+02    7.61269000E-02 
S    1    1.000000
   4.44553000E+01    2.60801000E-01 
S    1    1.000000
   1.30290000E+01    6.16462000E-01 
S    1    1.000000
   1.82773000E+00    2.21006000E-01 
SP   3    1.000000
   2.09642000E+01    1.14660000E-01   4.02487000E-02 
   4.80331000E+00    9.19999000E-01   2.37594000E-01 
   1.45933000E+00   -3.03068000E-03   8.15854000E-01 
SP   1    1.000000
   4.83456000E-01    1.00000000E+00   1.00000000E+00 
SP   1    1.000000
   1.45585000E-01    1.00000000E+00   1.00000000E+00 
SP   1    1.000000
   4.38000000E-02    1.00000000E+00   1.00000000E+00 
SP   1    1.000000
   1.31927711E-02    1.00000000E+00   1.00000000E+00 
D    1    1.000000
   6.26000000E-01    1.00000000E+00 

6    0
S    1    1.000000
   8.58850000E+03    1.89515000E-03 
S    1    1.000000
   1.29723000E+03    1.43859000E-02 
S    1    1.000000
   2.99296000E+02    7.07320000E-02 
S    1    1.000000
   8.73771000E+01    2.40001000E-01 
S    1    1.000000
   2.56789000E+01    5.94797000E-01 
S    1    1.000000
   3.74004000E+00    2.80802000E-01 
SP   3    1.000000
   4.21175000E+01    1.13889000E-01   3.65114000E-02 
   9.62837000E+00    9.20811000E-01   2.37153000E-01 
   2.85332000E+00   -3.27447000E-03   8.19702000E-01 
SP   1    1.000000
   9.05661000E-01    1.00000000E+00   1.00000000E+00 
SP   1    1.000000
   2.55611000E-01    1.00000000E+00   1.00000000E+00 
SP   1    1.000000
   8.45000000E-02    1.00000000E+00   1.00000000E+00 
SP   1    1.000000
   2.54518072E-02    1.00000000E+00   1.00000000E+00 
D    1    1.000000
   1.29200000E+00    1.00000000E+00 

7    0
S    1    1.000000
   4.56324000E+03    1.96665000E-03 
S    1    1.000000
   6.82024000E+02    1.52306000E-02 
S    1    1.000000
   1.54973000E+02    7.61269000E-02 
S    1    1.000000
   4.44553000E+01    2.60801000E-01 
S    1    1.000000
   1.30290000E+01    6.16462000E-01 
S    1    1.000000
   1.82773000E+00    2.21006000E-01 
SP   3    1.000000
   2.09642000E+01    1.14660000E-01   4.02487000E-02 
   4.80331000E+00    9.19999000E-01   2.37594000E-01 
   1.45933000E+00   -3.03068000E-03   8.15854000E-01 
SP   1    1.000000
   4.83456000E-01    1.00000000E+00   1.00000000E+00 
SP   1    1.000000
   1.45585000E-01    1.00000000E+00   1.00000000E+00 
SP   1    1.000000
   4.38000000E-02    1.00000000E+00   1.00000000E+00 
SP   1    1.000000
   1.31927711E-02    1.00000000E+00   1.00000000E+00 
D    1    1.000000
   6.26000000E-01    1.00000000E+00 

8    0
S    1    1.000000
   8.58850000E+03    1.89515000E-03 
S    1    1.000000
   1.29723000E+03    1.43859000E-02 
S    1    1.000000
   2.99296000E+02    7.07320000E-02 
S    1    1.000000
   8.73771000E+01    2.40001000E-01 
S    1    1.000000
   2.56789000E+01    5.94797000E-01 
S    1    1.000000
   3.74004000E+00    2.80802000E-01 
SP   3    1.000000
   4.21175000E+01    1.13889000E-01   3.65114000E-02 
   9.62837000E+00    9.20811000E-01   2.37153000E-01 
   2.85332000E+00   -3.27447000E-03   8.19702000E-01 
SP   1    1.000000
   9.05661000E-01    1.00000000E+00   1.00000000E+00 
SP   1    1.000000
   2.55611000E-01    1.00000000E+00   1.00000000E+00 
SP   1    1.000000
   8.45000000E-02    1.00000000E+00   1.00000000E+00 
SP   1    1.000000
   2.54518072E-02    1.00000000E+00   1.00000000E+00 
D    1    1.000000
   1.29200000E+00    1.00000000E+00 

9    0
S    1    1.000000
   6.29348000E+03    1.96979000E-03 
S    1    1.000000
   9.49044000E+02    1.49613000E-02 
S    1    1.000000
   2.18776000E+02    7.35006000E-02 
S    1    1.000000
   6.36916000E+01    2.48937000E-01 
S    1    1.000000
   1.88282000E+01    6.02460000E-01 
S    1    1.000000
   2.72023000E+00    2.56202000E-01 
SP   3    1.000000
   3.06331000E+01    1.11906000E-01   3.83119000E-02 
   7.02614000E+00    9.21666000E-01   2.37403000E-01 
   2.11205000E+00   -2.56919000E-03   8.17592000E-01 
SP   1    1.000000
   6.84009000E-01    1.00000000E+00   1.00000000E+00 
SP   1    1.000000
   2.00878000E-01    1.00000000E+00   1.00000000E+00 
SP   1    1.000000
   6.39000000E-02    1.00000000E+00   1.00000000E+00 
SP   1    1.000000
   1.92469880E-02    1.00000000E+00   1.00000000E+00 
D    1    1.000000
   9.13000000E-01    1.00000000E+00 

10    0
S    1    1.000000
   6.29348000E+03    1.96979000E-03 
S    1    1.000000
   9.49044000E+02    1.49613000E-02 
S    1    1.000000
   2.18776000E+02    7.35006000E-02 
S    1    1.000000
   6.36916000E+01    2.48937000E-01 
S    1    1.000000
   1.88282000E+01    6.02460000E-01 
S    1    1.000000
   2.72023000E+00    2.56202000E-01 
SP   3    1.000000
   3.06331000E+01    1.11906000E-01   3.83119000E-02 
   7.02614000E+00    9.21666000E-01   2.37403000E-01 
   2.11205000E+00   -2.56919000E-03   8.17592000E-01 
SP   1    1.000000
   6.84009000E-01    1.00000000E+00   1.00000000E+00 
SP   1    1.000000
   2.00878000E-01    1.00000000E+00   1.00000000E+00 
SP   1    1.000000
   6.39000000E-02    1.00000000E+00   1.00000000E+00 
SP   1    1.000000
   1.92469880E-02    1.00000000E+00   1.00000000E+00 
D    1    1.000000
   9.13000000E-01    1.00000000E+00 

11    0
S    1    1.000000
   4.56324000E+03    1.96665000E-03 
S    1    1.000000
   6.82024000E+02    1.52306000E-02 
S    1    1.000000
   1.54973000E+02    7.61269000E-02 
S    1    1.000000
   4.44553000E+01    2.60801000E-01 
S    1    1.000000
   1.30290000E+01    6.16462000E-01 
S    1    1.000000
   1.82773000E+00    2.21006000E-01 
SP   3    1.000000
   2.09642000E+01    1.14660000E-01   4.02487000E-02 
   4.80331000E+00    9.19999000E-01   2.37594000E-01 
   1.45933000E+00   -3.03068000E-03   8.15854000E-01 
SP   1    1.000000
   4.83456000E-01    1.00000000E+00   1.00000000E+00 
SP   1    1.000000
   1.45585000E-01    1.00000000E+00   1.00000000E+00 
SP   1    1.000000
   4.38000000E-02    1.00000000E+00   1.00000000E+00 
SP   1    1.000000
   1.31927711E-02    1.00000000E+00   1.00000000E+00 
D    1    1.000000
   6.26000000E-01    1.00000000E+00 

12    0
S    3    1.000000
   3.38650000E+01    2.54938000E-02 
   5.09479000E+00    1.90373000E-01 
   1.15879000E+00    8.52161000E-01 
S    1    1.000000
   3.25840000E-01    1.00000000E+00 
S    1    1.000000
   1.02741000E-01    1.00000000E+00 
S    1    1.000000
   3.60000000E-02    1.00000000E+00 
P    1    1.000000
   7.50000000E-01    1.00000000E+00 

[MO]
Sym=X
Ene=0.080345
Spin=Alpha
Occup=1
1    -8.1271109e-10
2    1.72397295e-09
3    -5.01622644e-08
4    5.92181455e-08
5    -1.670988e-06
6    -6.66244165e-06
7    3.33807382e-06
8    1.62040362e-06
9    -6.19313385e-07
10    7.76188617e-16
11    1.94753921e-05
12    -1.6669231e-05
13    5.43498839e-06
14    2.53395203e-15
15    -0.000149685948
16    -2.66122007e-05
17    -0.00014860615
18    -6.02952704e-16
19    -0.00287972738
20    5.83253726e-06
21    -0.00121487904
22    4.84080072e-14
23    -0.000314573466
24    -0.000236287532
25    0.000201708181
26    9.25338737e-15
27    -7.60203346e-06
28    -1.04513744e-16
29    2.71770469e-06
30    -4.37387533e-16
31    -4.78797866e-06
32    6.87878286e-06
33    -1.14927655e-05
34    -2.50993548e-05
35    9.54702032e-05
36    3.36489677e-06
37    -8.15470009e-06
38    1.05949296e-15
39    1.2629078e-06
40    -1.96041757e-05
41    -0.000111771016
42    -0.000764945297
43    -1.12301931e-06
44    -3.57766853e-06
45    2.58371433e-16
46    5.55630201e-06
47    9.5458069e-07
48    -9.75607129e-05
49    0.000125654518
50    8.54916076e-06
51    4.53760508e-07
52    -3.14337566e-16
53    -8.93264474e-09
54    -1.29002722e-07
55    -2.76516098e-07
56    -3.22623882e-06
57    -7.12213482e-06
58    -0.000120340346
59    -1.44558364e-05
60    -3.51005501e-05
61    2.16324214e-05
62    2.46203148e-15
63    0.000446183125
64    -0.000453434096
65    0.000272767523
66    -9.89264092e-16
67    -0.000890655406
68    0.000469129392
69    -0.000285773241
70    6.32650506e-15
71    -0.00214958956
72    0.00270376071
73    -0.00173884651
74    4.94923537e-14
75    0.00139281457
76    0.000107527478
77    0.000231831415
78    5.74938712e-15
79    -0.000243928532
80    -6.14178317e-16
81    -8.00357821e-05
82    -1.09892043e-15
83    0.000127611434
84    0.00104384924
85    0.00794068966
86    0.0389355454
87    0.132509603
88    0.327964708
89    0.155520501
90    0.471287887
91    0.00159309914
92    -0.000975079268
93    9.90482823e-16
94    0.00493927917
95    -0.000742633501
96    0.000452855899
97    7.11125234e-16
98    -0.000586130825
99    0.000409114069
100    -0.00025029315
101    5.10898205e-15
102    0.00323859624
103    0.000235856423
104    -0.00014221744
105    -5.6454752e-15
106    0.00754923718
107    0.00139631622
108    -0.000692576631
109    4.62241991e-15
110    8.6094343e-05
111    -7.73326797e-16
112    -7.52538023e-05
113    1.8550554e-16
114    -4.74859201e-05
115    -8.12675252e-10
116    1.89230852e-09
117    -5.05808663e-08
118    6.37620988e-08
119    -1.67162237e-06
120    -6.52309337e-06
121    3.31130752e-06
122    2.04793774e-06
123    5.61607193e-07
124    -1.89059882e-15
125    1.67133138e-05
126    -1.10500769e-05
127    2.76191056e-06
128    1.00937686e-15
129    6.04841418e-05
130    0.000236778341
131    0.000157402518
132    -9.5740607e-15
133    -0.00186142468
134    0.00111728184
135    0.000398262666
136    6.86634675e-14
137    -0.00040818023
138    0.000173581112
139    -0.000252459914
140    4.49317359e-14
141    3.96893666e-06
142    -9.11368546e-16
143    -5.54746168e-07
144    -1.14106069e-15
145    5.62724789e-06
146    6.74391102e-07
147    5.13452542e-06
148    2.5144834e-05
149    8.56947099e-05
150    0.000211033319
151    9.6812393e-05
152    0.000306893014
153    6.64328498e-07
154    -7.97762274e-07
155    -7.1823196e-16
156    1.46922346e-05
157    -5.08061733e-06
158    9.67423466e-11
159    -2.90638095e-15
160    -9.30559016e-05
161    5.5804823e-05
162    2.39763973e-05
163    1.11071255e-15
164    -0.000453575252
165    4.21851156e-05
166    7.2077491e-05
167    -9.36659469e-15
168    -0.00237920547
169    0.000382409136
170    7.91493473e-05
171    -1.52391159e-14
172    -1.67066676e-06
173    -1.66448869e-16
174    1.19832205e-06
175    -5.2277817e-17
176    -4.74025982e-07
177    -1.31398998e-09
178    2.5091876e-08
179    -1.26617469e-07
180    5.51983872e-07
181    -6.80973084e-06
182    -2.76351217e-05
183    1.88821894e-05
184    1.67249044e-05
185    -1.49201112e-06
186    1.76947867e-15
187    3.92105258e-05
188    -5.50152649e-05
189    -5.62035851e-07
190    -5.76642012e-15
191    2.10175223e-05
192    1.33380517e-05
193    -1.90216696e-05
194    1.40771441e-14
195    0.000191232967
196    -3.8728132e-05
197    0.000213194092
198    -4.14725303e-14
199    -0.0014253992
200    0.00233352245
201    -7.26271835e-05
202    -4.41782187e-14
203    3.8928629e-06
204    -3.69357165e-16
205    -4.5074972e-06
206    -1.22045355e-15
207    3.15463492e-05
208    -1.31348971e-09
209    2.76166385e-08
210    -1.32276753e-07
211    6.03542752e-07
212    -7.26570793e-06
213    -2.95979479e-05
214    2.02210055e-05
215    8.69985568e-06
216    -1.4764079e-05
217    3.01581029e-15
218    4.43357444e-05
219    -2.37667472e-05
220    5.12871538e-05
221    -1.79930534e-15
222    -7.94043085e-06
223    7.71982504e-06
224    -1.93058849e-05
225    1.58969567e-14
226    0.000194233569
227    -5.8940074e-05
228    -1.38267743e-05
229    -3.69314052e-14
230    -0.00192127205
231    0.000379626157
232    -0.000770648817
233    -1.41681415e-14
234    -2.04219045e-05
235    2.0928151e-16
236    -4.10623209e-06
237    2.55870496e-17
238    -2.38399447e-05
239    3.61544165e-11
240    2.89705119e-10
241    1.43020035e-09
242    1.97261283e-09
243    -6.73803657e-08
244    -1.08755796e-06
245    2.96041262e-07
246    1.28112359e-06
247    -5.96540794e-08
248    4.49975659e-16
249    -5.737067e-08
250    -1.34933296e-05
251    1.09968759e-06
252    5.40182509e-16
253    0.000236822504
254    -0.000144820396
255    7.93204266e-05
256    5.28205334e-15
257    0.00307240857
258    -0.00072239192
259    0.000413134058
260    -5.2895517e-14
261    -0.000114934318
262    -0.000110480577
263    -0.00028222267
264    -2.87757949e-14
265    5.80356682e-06
266    -3.08967093e-16
267    1.28832058e-06
268    -6.45616932e-16
269    2.79897104e-07
270    5.97711917e-07
271    2.44484471e-05
272    5.52909374e-05
273    6.92277357e-05
274    -3.63585639e-06
275    2.52044882e-06
276    -1.18916603e-16
[5D]