[Molden Format]
[Atoms] (Angs)
  C      1    6     -0.13173890     -1.79208980     -0.00000000
  H      2    1     -2.14962000     -1.30978739     -0.00000000
  H      3    1     -0.31599560     -2.86503115     -0.00000000
  H      4    1      0.14407746      2.04280963     -0.00000000
  C      5    6     -1.17258876      0.48030861     -0.00000000
  O      6    8     -2.25008207      1.06833796     -0.00000000
  C      7    6      1.31158357      0.28308717      0.00000000
  O      8    8      2.36361668      0.96389345      0.00000000
  N      9    7      0.07017030      1.03138997     -0.00000000
  N     10    7     -1.19586868     -0.94982644     -0.00000000
  C     11    6      1.19165158     -1.13169473      0.00000000
  H     12    1      2.09970506     -1.73445456      0.00000000
[GTO]
1    0
S    1    1.000000
   4.56324000E+03    1.96665000E-03 
S    1    1.000000
   6.82024000E+02    1.52306000E-02 
S    1    1.000000
   1.54973000E+02    7.61269000E-02 
S    1    1.000000
   4.44553000E+01    2.60801000E-01 
S    1    1.000000
   1.30290000E+01    6.16462000E-01 
S    1    1.000000
   1.82773000E+00    2.21006000E-01 
SP   3    1.000000
   2.09642000E+01    1.14660000E-01   4.02487000E-02 
   4.80331000E+00    9.19999000E-01   2.37594000E-01 
   1.45933000E+00   -3.03068000E-03   8.15854000E-01 
SP   1    1.000000
   4.83456000E-01    1.00000000E+00   1.00000000E+00 
SP   1    1.000000
   1.45585000E-01    1.00000000E+00   1.00000000E+00 
SP   1    1.000000
   4.38000000E-02    1.00000000E+00   1.00000000E+00 
SP   1    1.000000
   1.31927711E-02    1.00000000E+00   1.00000000E+00 
D    1    1.000000
   6.26000000E-01    1.00000000E+00 

2    0
S    3    1.000000
   3.38650000E+01    2.54938000E-02 
   5.09479000E+00    1.90373000E-01 
   1.15879000E+00    8.52161000E-01 
S    1    1.000000
   3.25840000E-01    1.00000000E+00 
S    1    1.000000
   1.02741000E-01    1.00000000E+00 
S    1    1.000000
   3.60000000E-02    1.00000000E+00 
P    1    1.000000
   7.50000000E-01    1.00000000E+00 

3    0
S    3    1.000000
   3.38650000E+01    2.54938000E-02 
   5.09479000E+00    1.90373000E-01 
   1.15879000E+00    8.52161000E-01 
S    1    1.000000
   3.25840000E-01    1.00000000E+00 
S    1    1.000000
   1.02741000E-01    1.00000000E+00 
S    1    1.000000
   3.60000000E-02    1.00000000E+00 
P    1    1.000000
   7.50000000E-01    1.00000000E+00 

4    0
S    3    1.000000
   3.38650000E+01    2.54938000E-02 
   5.09479000E+00    1.90373000E-01 
   1.15879000E+00    8.52161000E-01 
S    1    1.000000
   3.25840000E-01    1.00000000E+00 
S    1    1.000000
   1.02741000E-01    1.00000000E+00 
S    1    1.000000
   3.60000000E-02    1.00000000E+00 
P    1    1.000000
   7.50000000E-01    1.00000000E+00 

5    0
S    1    1.000000
   4.56324000E+03    1.96665000E-03 
S    1    1.000000
   6.82024000E+02    1.52306000E-02 
S    1    1.000000
   1.54973000E+02    7.61269000E-02 
S    1    1.000000
   4.44553000E+01    2.60801000E-01 
S    1    1.000000
   1.30290000E+01    6.16462000E-01 
S    1    1.000000
   1.82773000E+00    2.21006000E-01 
SP   3    1.000000
   2.09642000E+01    1.14660000E-01   4.02487000E-02 
   4.80331000E+00    9.19999000E-01   2.37594000E-01 
   1.45933000E+00   -3.03068000E-03   8.15854000E-01 
SP   1    1.000000
   4.83456000E-01    1.00000000E+00   1.00000000E+00 
SP   1    1.000000
   1.45585000E-01    1.00000000E+00   1.00000000E+00 
SP   1    1.000000
   4.38000000E-02    1.00000000E+00   1.00000000E+00 
SP   1    1.000000
   1.31927711E-02    1.00000000E+00   1.00000000E+00 
D    1    1.000000
   6.26000000E-01    1.00000000E+00 

6    0
S    1    1.000000
   8.58850000E+03    1.89515000E-03 
S    1    1.000000
   1.29723000E+03    1.43859000E-02 
S    1    1.000000
   2.99296000E+02    7.07320000E-02 
S    1    1.000000
   8.73771000E+01    2.40001000E-01 
S    1    1.000000
   2.56789000E+01    5.94797000E-01 
S    1    1.000000
   3.74004000E+00    2.80802000E-01 
SP   3    1.000000
   4.21175000E+01    1.13889000E-01   3.65114000E-02 
   9.62837000E+00    9.20811000E-01   2.37153000E-01 
   2.85332000E+00   -3.27447000E-03   8.19702000E-01 
SP   1    1.000000
   9.05661000E-01    1.00000000E+00   1.00000000E+00 
SP   1    1.000000
   2.55611000E-01    1.00000000E+00   1.00000000E+00 
SP   1    1.000000
   8.45000000E-02    1.00000000E+00   1.00000000E+00 
SP   1    1.000000
   2.54518072E-02    1.00000000E+00   1.00000000E+00 
D    1    1.000000
   1.29200000E+00    1.00000000E+00 

7    0
S    1    1.000000
   4.56324000E+03    1.96665000E-03 
S    1    1.000000
   6.82024000E+02    1.52306000E-02 
S    1    1.000000
   1.54973000E+02    7.61269000E-02 
S    1    1.000000
   4.44553000E+01    2.60801000E-01 
S    1    1.000000
   1.30290000E+01    6.16462000E-01 
S    1    1.000000
   1.82773000E+00    2.21006000E-01 
SP   3    1.000000
   2.09642000E+01    1.14660000E-01   4.02487000E-02 
   4.80331000E+00    9.19999000E-01   2.37594000E-01 
   1.45933000E+00   -3.03068000E-03   8.15854000E-01 
SP   1    1.000000
   4.83456000E-01    1.00000000E+00   1.00000000E+00 
SP   1    1.000000
   1.45585000E-01    1.00000000E+00   1.00000000E+00 
SP   1    1.000000
   4.38000000E-02    1.00000000E+00   1.00000000E+00 
SP   1    1.000000
   1.31927711E-02    1.00000000E+00   1.00000000E+00 
D    1    1.000000
   6.26000000E-01    1.00000000E+00 

8    0
S    1    1.000000
   8.58850000E+03    1.89515000E-03 
S    1    1.000000
   1.29723000E+03    1.43859000E-02 
S    1    1.000000
   2.99296000E+02    7.07320000E-02 
S    1    1.000000
   8.73771000E+01    2.40001000E-01 
S    1    1.000000
   2.56789000E+01    5.94797000E-01 
S    1    1.000000
   3.74004000E+00    2.80802000E-01 
SP   3    1.000000
   4.21175000E+01    1.13889000E-01   3.65114000E-02 
   9.62837000E+00    9.20811000E-01   2.37153000E-01 
   2.85332000E+00   -3.27447000E-03   8.19702000E-01 
SP   1    1.000000
   9.05661000E-01    1.00000000E+00   1.00000000E+00 
SP   1    1.000000
   2.55611000E-01    1.00000000E+00   1.00000000E+00 
SP   1    1.000000
   8.45000000E-02    1.00000000E+00   1.00000000E+00 
SP   1    1.000000
   2.54518072E-02    1.00000000E+00   1.00000000E+00 
D    1    1.000000
   1.29200000E+00    1.00000000E+00 

9    0
S    1    1.000000
   6.29348000E+03    1.96979000E-03 
S    1    1.000000
   9.49044000E+02    1.49613000E-02 
S    1    1.000000
   2.18776000E+02    7.35006000E-02 
S    1    1.000000
   6.36916000E+01    2.48937000E-01 
S    1    1.000000
   1.88282000E+01    6.02460000E-01 
S    1    1.000000
   2.72023000E+00    2.56202000E-01 
SP   3    1.000000
   3.06331000E+01    1.11906000E-01   3.83119000E-02 
   7.02614000E+00    9.21666000E-01   2.37403000E-01 
   2.11205000E+00   -2.56919000E-03   8.17592000E-01 
SP   1    1.000000
   6.84009000E-01    1.00000000E+00   1.00000000E+00 
SP   1    1.000000
   2.00878000E-01    1.00000000E+00   1.00000000E+00 
SP   1    1.000000
   6.39000000E-02    1.00000000E+00   1.00000000E+00 
SP   1    1.000000
   1.92469880E-02    1.00000000E+00   1.00000000E+00 
D    1    1.000000
   9.13000000E-01    1.00000000E+00 

10    0
S    1    1.000000
   6.29348000E+03    1.96979000E-03 
S    1    1.000000
   9.49044000E+02    1.49613000E-02 
S    1    1.000000
   2.18776000E+02    7.35006000E-02 
S    1    1.000000
   6.36916000E+01    2.48937000E-01 
S    1    1.000000
   1.88282000E+01    6.02460000E-01 
S    1    1.000000
   2.72023000E+00    2.56202000E-01 
SP   3    1.000000
   3.06331000E+01    1.11906000E-01   3.83119000E-02 
   7.02614000E+00    9.21666000E-01   2.37403000E-01 
   2.11205000E+00   -2.56919000E-03   8.17592000E-01 
SP   1    1.000000
   6.84009000E-01    1.00000000E+00   1.00000000E+00 
SP   1    1.000000
   2.00878000E-01    1.00000000E+00   1.00000000E+00 
SP   1    1.000000
   6.39000000E-02    1.00000000E+00   1.00000000E+00 
SP   1    1.000000
   1.92469880E-02    1.00000000E+00   1.00000000E+00 
D    1    1.000000
   9.13000000E-01    1.00000000E+00 

11    0
S    1    1.000000
   4.56324000E+03    1.96665000E-03 
S    1    1.000000
   6.82024000E+02    1.52306000E-02 
S    1    1.000000
   1.54973000E+02    7.61269000E-02 
S    1    1.000000
   4.44553000E+01    2.60801000E-01 
S    1    1.000000
   1.30290000E+01    6.16462000E-01 
S    1    1.000000
   1.82773000E+00    2.21006000E-01 
SP   3    1.000000
   2.09642000E+01    1.14660000E-01   4.02487000E-02 
   4.80331000E+00    9.19999000E-01   2.37594000E-01 
   1.45933000E+00   -3.03068000E-03   8.15854000E-01 
SP   1    1.000000
   4.83456000E-01    1.00000000E+00   1.00000000E+00 
SP   1    1.000000
   1.45585000E-01    1.00000000E+00   1.00000000E+00 
SP   1    1.000000
   4.38000000E-02    1.00000000E+00   1.00000000E+00 
SP   1    1.000000
   1.31927711E-02    1.00000000E+00   1.00000000E+00 
D    1    1.000000
   6.26000000E-01    1.00000000E+00 

12    0
S    3    1.000000
   3.38650000E+01    2.54938000E-02 
   5.09479000E+00    1.90373000E-01 
   1.15879000E+00    8.52161000E-01 
S    1    1.000000
   3.25840000E-01    1.00000000E+00 
S    1    1.000000
   1.02741000E-01    1.00000000E+00 
S    1    1.000000
   3.60000000E-02    1.00000000E+00 
P    1    1.000000
   7.50000000E-01    1.00000000E+00 

[MO]
Sym=X
Ene=0.919914
Spin=Alpha
Occup=1
    1.95025232e-05
    0.000150906744
    0.000753428438
    0.0025848751
    0.00613126038
    0.0023958356
    0.0081583572
    -5.15679363e-05
    -7.91407379e-06
    -7.31668788e-17
    -0.000475077854
    -0.000669650025
    -0.000345758256
    -1.38269889e-15
    -0.000206034043
    7.8362527e-05
    -5.58820254e-05
    -5.46848793e-16
    0.00240844259
    0.000272016051
    0.000957927789
    2.667955e-15
    -0.00102248662
    -0.000317625385
    7.31282754e-05
    3.82453366e-14
    -0.00030857831
    3.34878502e-16
    0.000109599828
    -8.17741132e-16
    -0.000212043076
    -9.19537745e-06
    -1.53894909e-06
    0.000128378534
    0.000159125941
    -7.71915685e-06
    2.81515932e-06
    7.90003657e-16
    -4.51848269e-06
    -8.68871206e-05
    0.000151274647
    0.000355764466
    -4.46110322e-05
    -3.62292911e-05
    -1.95091074e-16
    -5.45567834e-06
    -4.37455869e-05
    4.01525357e-05
    -1.9590613e-05
    -1.93761753e-06
    1.15080517e-05
    1.76925677e-15
    -8.98466553e-08
    -7.11522102e-07
    -3.43461298e-06
    -1.22381735e-05
    -2.46573497e-05
    7.91560417e-06
    -4.82439548e-05
    3.06071359e-06
    -5.01331277e-06
    6.53965289e-15
    -3.8349909e-05
    -1.44827224e-05
    1.96928837e-05
    1.2088205e-14
    -1.00902013e-05
    0.000170476159
    -9.82443038e-05
    1.06624795e-14
    -0.00085960934
    -0.000166003672
    0.00025703407
    1.06800179e-14
    -0.000661291588
    -0.000103227554
    -2.87229837e-05
    -2.58359544e-14
    -3.66958843e-08
    1.52321634e-15
    1.87495908e-07
    -1.08460483e-15
    6.70788012e-06
    4.02051764e-10
    -3.10265117e-09
    2.91289328e-08
    -6.67095664e-08
    1.46556082e-06
    6.18157711e-06
    -3.63439878e-06
    1.19959325e-06
    -8.2289502e-07
    4.51795979e-15
    -1.57589625e-05
    -6.81008151e-06
    4.8164076e-06
    9.4120514e-15
    6.6442423e-05
    3.43225394e-05
    -1.90089567e-05
    1.34461346e-14
    0.00028415181
    8.11007843e-05
    -6.08854008e-05
    9.7193146e-15
    -0.000261899346
    -9.12915842e-05
    -7.79699631e-05
    1.87647687e-14
    4.62527611e-07
    -1.29183505e-15
    -7.04842708e-07
    1.55765104e-15
    -1.4245285e-07
    1.24093911e-05
    9.60756012e-05
    0.000479336845
    0.0016462218
    0.00389343279
    0.00153526399
    0.00523571867
    3.51093961e-06
    0.000109162982
    -1.76039829e-15
    -0.000535366874
    5.9496799e-05
    0.000647904435
    -4.00694507e-15
    -0.000191806411
    -0.000175956967
    -8.47457058e-05
    -3.72758872e-15
    0.00337680748
    -0.00088951122
    -0.00108112593
    1.4467159e-14
    0.00168824157
    -0.000119536636
    -1.24096559e-05
    3.61451208e-14
    -6.98532697e-05
    8.82288701e-16
    0.00011279247
    -1.14462761e-15
    0.000324286297
    -8.84558021e-09
    -8.24662301e-08
    -3.00596127e-07
    -1.42029404e-06
    6.57585648e-07
    1.37136485e-05
    -1.62523122e-05
    -5.23291905e-06
    -1.95982605e-05
    -4.6607256e-16
    -2.07819106e-05
    1.22052525e-05
    2.17660812e-05
    -4.8950441e-15
    4.99041784e-05
    -3.15770769e-05
    -2.31922968e-05
    -1.18411832e-15
    0.000365297282
    -2.72222823e-05
    -9.11115807e-06
    -1.11303555e-14
    0.0015783282
    -0.000321883005
    -7.9014693e-05
    -8.59939532e-15
    -1.67265201e-05
    4.42802548e-16
    -9.92406218e-08
    3.29807869e-16
    1.9152496e-05
    -1.20566272e-08
    -1.1342005e-07
    -4.06503459e-07
    -1.96406836e-06
    9.43738239e-07
    2.00711474e-05
    -2.14181326e-05
    1.47000723e-05
    -1.13069376e-05
    2.23613245e-15
    -2.01645313e-05
    -3.13846265e-05
    1.88027671e-05
    3.75809744e-15
    -3.22510627e-05
    2.74106408e-05
    6.66823038e-05
    6.93861209e-15
    -0.000365090292
    5.78423983e-05
    3.91273069e-05
    -2.50291403e-15
    -0.000934254348
    -0.000678060851
    0.000147625674
    -6.44106817e-15
    2.3950187e-05
    4.682705e-17
    1.14805495e-06
    -1.3684996e-15
    -1.02904868e-05
    -1.4548638e-08
    -1.49069465e-07
    -4.61901783e-07
    -2.60598595e-06
    3.7625296e-06
    3.81293805e-05
    -3.31991413e-05
    1.75344826e-05
    -1.2901334e-05
    1.58937444e-15
    -7.50135111e-05
    -5.51392016e-05
    4.66653346e-05
    5.02258939e-15
    9.88891169e-05
    8.81983485e-05
    -3.56874959e-05
    7.63378289e-15
    -0.000116384758
    0.000177420256
    5.52215568e-05
    5.45087217e-15
    8.48088759e-05
    0.000279131155
    -9.87891769e-06
    -1.18032004e-14
    3.13832663e-05
    1.73220483e-15
    1.46223881e-06
    -7.82247988e-16
    -1.02402437e-05
    -0.00110857877
    -0.0085824209
    -0.0428106462
    -0.146993321
    -0.347205576
    -0.127426898
    -0.464602232
    0.000596257029
    -0.000181097975
    -1.18371259e-15
    -0.00256046885
    -0.000360984129
    1.34530677e-05
    -5.70083529e-15
    0.000253265335
    0.000351603961
    -5.93319638e-05
    -2.36402843e-15
    -0.00563555615
    0.00122024601
    -0.00119986651
    -1.32465664e-14
    0.000122709007
    -0.000114253176
    -0.000409542013
    -4.90889683e-14
    0.000103017599
    -1.55665681e-16
    -0.000484233341
    -5.33615575e-16
    5.0937234e-05
    -0.000357687907
    -0.000461260785
    -0.000194461903
    -0.000586332615
    0.000241897886
    -0.000171151905
    -1.02335163e-15
Sym=X
Ene=0.916762
Spin=Alpha
Occup=1
    -0.00110957795
    -0.00858983449
    -0.0428508229
    -0.147114292
    -0.347547416
    -0.126119231
    -0.465678254
    0.000394156584
    -0.00113302781
    -7.56811684e-16
    -0.00131290061
    -0.00028433695
    0.00102669862
    -3.1766719e-15
    -0.00142903921
    -4.1306232e-05
    -0.00139080965
    -1.42093704e-16
    -0.00319751386
    -6.60011812e-05
    -0.00215526236
    1.25988517e-14
    -0.00277679528
    -0.000640055874
    -0.000152708703
    -1.99745971e-14
    -0.000167737268
    -7.88160002e-16
    0.000454763017
    6.67881796e-16
    0.000240229308
    -2.69598853e-05
    -8.39954354e-05
    0.000286350278
    0.000592559016
    -5.64147478e-05
    -1.09834656e-05
    -2.04300039e-15
    -0.000267643021
    -1.89328808e-05
    -0.00103238844
    -0.000826024773
    -1.40512621e-05
    -7.6034041e-05
    -6.87275916e-16
    -1.29829606e-05
    4.09167379e-05
    -0.000417864495
    -0.000536592358
    -3.9778404e-06
    1.84664525e-07
    -7.82439191e-16
    -3.10157852e-07
    -2.43246528e-06
    -1.19115942e-05
    -4.17555353e-05
    -8.99527427e-05
    4.69912882e-06
    -0.000153206412
    5.47305938e-06
    -2.16719726e-05
    -4.52976194e-15
    -8.39718831e-05
    -1.14145652e-05
    6.9386607e-05
    -8.33831217e-15
    -0.000289579928
    0.000716962823
    -0.000249016144
    -8.89029661e-15
    -5.97908275e-05
    0.000324784348
    -0.000647804955
    1.53158826e-14
    -0.000929955074
    -0.000198067352
    -3.52399166e-06
    2.48263011e-14
    2.02224957e-05
    2.62194624e-17
    -4.37753793e-06
    1.03421342e-15
    3.73378313e-05
    2.62353839e-09
    -7.63050674e-09
    1.62141373e-07
    -1.94615273e-07
    6.76210509e-06
    2.73457096e-05
    -1.52608277e-05
    3.53875755e-06
    -2.30734641e-06
    -3.15695695e-15
    -7.40606493e-05
    -2.42298616e-05
    2.84359575e-05
    -3.7640612e-15
    0.000334778391
    0.000156931353
    -0.000111159768
    -7.76522104e-15
    0.000939460702
    0.00015632534
    -9.25025399e-05
    -6.34294395e-15
    0.000662627741
    0.000188662843
    2.608309e-05
    -1.20615549e-14
    6.76081001e-07
    1.09919833e-16
    -4.449861e-07
    -5.61941649e-16
    4.1307635e-06
    1.76678229e-07
    1.31254421e-06
    6.94642455e-06
    2.23174707e-05
    6.76439387e-05
    8.81507325e-05
    3.75102693e-05
    -5.68823333e-06
    -2.28300015e-05
    1.222485e-15
    -0.00014801358
    3.36578133e-05
    0.000145863979
    3.08642821e-15
    -0.000155187408
    -3.71195188e-05
    -5.89046724e-06
    3.75099769e-15
    -0.00125387029
    -0.000416965666
    -0.000106452371
    2.04826432e-14
    0.00247091335
    -8.82629505e-05
    -0.000291862827
    -2.8991139e-14
    -3.95080942e-05
    -3.01357886e-16
    4.9782082e-06
    1.86609667e-15
    6.42011062e-05
    9.22804698e-10
    1.7462984e-09
    4.70911358e-08
    1.60123357e-08
    1.39956653e-06
    5.08260995e-06
    -2.47476803e-06
    -1.89949173e-06
    -3.08157243e-06
    2.75183673e-15
    -1.14595139e-05
    1.42509536e-05
    2.34647155e-05
    5.03297041e-16
    -7.58941376e-06
    -4.58759939e-05
    -2.98698794e-05
    6.9850906e-15
    0.000365314922
    -3.06121756e-06
    -3.66199349e-05
    5.19984224e-16
    0.000527863917
    -0.00010404141
    2.13795188e-05
    1.20355037e-14
    -3.51951242e-06
    -2.90128856e-19
    5.04366484e-07
    -3.81448618e-16
    6.24886961e-06
    -1.47842592e-09
    -4.72241217e-08
    2.70202097e-08
    -9.07521398e-07
    6.80523736e-06
    3.24973947e-05
    -2.17441115e-05
    1.35796443e-06
    -8.3935533e-06
    -1.15057378e-15
    -5.30973888e-05
    7.93802105e-10
    3.0467443e-05
    -4.14199058e-15
    -0.000154818728
    6.75201403e-05
    7.32220566e-05
    -1.82044021e-16
    -0.000643097394
    4.06624259e-05
    0.00104041092
    -1.61421191e-14
    -0.00141378221
    1.81707167e-06
    0.000436922503
    -8.48156085e-16
    -2.72919582e-07
    3.81608748e-16
    3.70704579e-06
    1.85085569e-15
    -6.70432843e-06
    3.48973628e-07
    2.51363497e-06
    1.34757471e-05
    4.18917022e-05
    0.000140511594
    0.000259573772
    0.00010485234
    -8.18892234e-05
    5.8799111e-05
    -3.35413148e-15
    -0.000653134589
    -0.000651811561
    0.00049387031
    -4.647601e-15
    0.000210575217
    4.25370699e-05
    -1.63623836e-05
    -6.57600967e-15
    0.00183036618
    0.00107713953
    9.69555961e-05
    -1.67554404e-14
    0.00110241939
    0.000480077849
    0.00039954339
    6.66291248e-16
    0.000351038797
    -5.79257169e-16
    0.00010942572
    -7.68613453e-17
    -8.44238016e-05
    -1.85432966e-05
    -0.000143567612
    -0.000715987486
    -0.00245842105
    -0.00580022448
    -0.00204154294
    -0.00775615775
    7.02713932e-05
    2.44073026e-05
    1.54650497e-15
    -0.000419253806
    0.000506364125
    0.000252167048
    -8.02180129e-16
    0.000767494862
    -0.000591090258
    0.000140470461
    4.06592846e-15
    0.00247820708
    -0.000808272412
    0.00122431824
    -1.57563419e-14
    0.00115781926
    -0.00047303267
    -0.00055086929
    4.43005522e-14
    -0.000235313974
    4.55140497e-16
    5.59589531e-06
    3.22513773e-16
    -0.000200772181
    -3.25504188e-05
    -7.65010229e-05
    0.000407999271
    0.000721844929
    8.97342336e-05
    -5.67349755e-06
    1.18477758e-15
Sym=X
Ene=0.927378
Spin=Alpha
Occup=1
    3.83937649e-08
    2.44244225e-07
    1.60245458e-06
    3.99472154e-06
    2.29768162e-05
    5.64298076e-05
    -1.55831053e-05
    1.95284852e-05
    2.1321354e-05
    2.75419249e-15
    -7.55211365e-05
    -9.06671305e-05
    -9.09976194e-05
    6.27977099e-15
    -0.000104855109
    2.13158281e-05
    -0.000212860755
    5.87047735e-15
    0.00167347323
    3.35396201e-05
    0.00060193257
    1.91829965e-14
    0.00193665979
    0.000165999367
    0.00019500694
    8.44836745e-16
    -6.04956579e-05
    6.51058979e-16
    8.5695259e-06
    4.79257206e-16
    -8.58289241e-07
    -1.17477881e-05
    5.2580649e-05
    -0.000293009172
    -0.000378590218
    -3.42827141e-09
    1.90824629e-06
    9.20718708e-16
    7.5382883e-06
    -9.551594e-05
    1.28253425e-05
    2.43449252e-05
    -1.52435544e-05
    -1.22444782e-05
    1.78006302e-15
    -3.1904119e-05
    -4.99791078e-05
    3.41225299e-06
    0.000338448063
    -9.05743985e-06
    4.33909162e-05
    -1.25021554e-15
    -3.68311919e-07
    -2.88217511e-06
    -1.41582776e-05
    -4.9445347e-05
    -0.000108044184
    6.91878074e-07
    -0.000177931987
    1.87839404e-05
    5.89187326e-07
    -1.63264689e-15
    -7.22818076e-05
    -6.90503369e-05
    2.86762588e-06
    -3.99168533e-15
    -5.63330606e-05
    0.000393442765
    1.83467732e-05
    -6.49875036e-16
    -0.00115578705
    -0.000133696012
    0.00056536552
    1.40925003e-14
    -0.000786561387
    -5.23179576e-05
    3.62140662e-05
    1.5347223e-14
    -6.13911925e-06
    -1.5734622e-15
    2.38883806e-06
    -3.78316293e-16
    -4.77515302e-05
    1.63746559e-09
    5.2518621e-10
    8.92577593e-08
    -2.08352046e-08
    3.05069761e-06
    1.16199823e-05
    -6.10320773e-06
    1.06365018e-06
    -7.08470465e-07
    -1.66793751e-15
    -3.17811987e-05
    -1.89788511e-05
    1.42415263e-06
    -1.09914742e-15
    0.000124354562
    5.88706235e-05
    -6.76851848e-05
    -8.71597563e-15
    0.000517602668
    0.000188045716
    -3.58092193e-05
    1.37321814e-15
    -0.000461049773
    -0.000161804277
    -0.000234562404
    -1.16844341e-14
    -5.92186648e-06
    1.50785095e-16
    -1.70734353e-06
    -8.89859959e-16
    -5.95957504e-06
    -0.00110973914
    -0.00859108009
    -0.0428572244
    -0.147136557
    -0.347586955
    -0.125985029
    -0.465821054
    0.000386923615
    -0.000536991023
    1.89537803e-15
    -0.00127890082
    -0.00041764377
    0.000359481546
    3.02498678e-15
    -0.00241574851
    0.000326633573
    -0.000425385367
    4.1586441e-16
    0.0034677584
    -0.000757681786
    -0.00270754494
    3.04805574e-14
    -0.000843754731
    -0.000181547608
    0.000410232288
    2.00207113e-15
    -0.000248685137
    -1.95817802e-15
    0.000529183552
    -5.61296808e-16
    9.46161788e-05
    3.10713999e-07
    2.25471318e-06
    1.19951602e-05
    3.77590626e-05
    0.000121110535
    0.000194020839
    0.000141441111
    0.000178537016
    0.000116827483
    -2.18407128e-16
    -0.000607260145
    0.000537926176
    0.000366120197
    -5.31035566e-16
    0.000273129391
    -0.000266862306
    -0.000117321333
    4.16706577e-15
    0.000871745609
    -5.16953383e-05
    6.17355178e-05
    -4.04772682e-15
    0.00312598623
    -0.000687856764
    -5.35615285e-05
    -5.99485872e-17
    -0.000240064074
    -2.09244e-16
    0.000108748295
    -1.76474344e-16
    -9.26757991e-05
    2.39212456e-07
    1.65318883e-06
    9.40244452e-06
    2.72460389e-05
    0.000108799259
    0.000213485869
    3.89109146e-05
    -3.42722109e-05
    3.27243882e-05
    -6.40243931e-16
    -0.000464915376
    -0.000540209806
    0.000309325103
    -3.59517181e-15
    0.000244637962
    0.000353178795
    -2.25078682e-05
    3.14846134e-15
    0.000997275771
    0.000825588935
    -0.000226513244
    -1.55183813e-14
    -0.000729691344
    -0.00133349842
    -0.000129008678
    -1.02756038e-14
    0.000251964656
    -8.39079307e-16
    7.61947238e-05
    3.51577338e-16
    -0.000132060256
    -1.20576821e-09
    -5.18394804e-08
    5.27765336e-08
    -1.00515668e-06
    8.26481638e-06
    3.92273793e-05
    -2.55122258e-05
    6.27356645e-06
    3.88479819e-06
    1.95953928e-15
    -8.39134893e-05
    -2.23872323e-05
    -1.53615082e-05
    1.99829178e-15
    0.000206153255
    6.43462927e-05
    4.70769332e-05
    5.68073121e-15
    0.000277999041
    -0.000561673599
    4.57434958e-05
    -9.91313622e-15
    -0.000601047398
    1.49300532e-05
    -0.000296351618
    -5.32775325e-15
    2.96546478e-06
    -1.27886411e-15
    2.82678022e-06
    6.14530481e-16
    8.99923533e-06
    -1.17662044e-05
    -9.10013948e-05
    -0.000454483091
    -0.00155770808
    -0.00369874807
    -0.0013561745
    -0.00484928193
    3.49861677e-06
    -0.000117155066
    4.06339505e-15
    -0.000323423049
    -2.39127038e-05
    -0.000394590292
    5.76779469e-15
    0.000595082441
    -0.000178954547
    0.000364139693
    1.07558056e-14
    -0.00688044182
    0.000208848851
    -0.00158023761
    -1.43239039e-14
    -0.000193535148
    0.000417439989
    0.000317006736
    -2.37647737e-15
    -6.59302469e-05
    5.57002338e-16
    -2.52930221e-05
    -6.1272356e-16
    0.00024537498
    -3.26744049e-05
    -0.000113095829
    0.00024429088
    -0.000203864918
    4.87905072e-05
    -8.22871591e-05
    1.58505981e-15
Sym=X
Ene=0.928946
Spin=Alpha
Occup=1
    3.07507661e-07
    2.36121548e-06
    1.19148954e-05
    4.04020266e-05
    0.000101397138
    6.79384455e-05
    0.000111982315
    -1.22143868e-05
    9.70006682e-06
    -1.13816903e-15
    -7.81618215e-05
    5.17420523e-05
    -3.89173844e-05
    -5.24787396e-15
    0.000303567188
    -1.47552324e-05
    0.000149739212
    6.43575394e-16
    -0.00265511214
    -0.000453050229
    -0.00134564161
    -1.66312435e-14
    -0.00383029439
    -0.000340276065
    -0.000334296365
    1.15160853e-14
    4.9648811e-05
    -6.02149273e-16
    -1.43272401e-05
    7.85466982e-16
    4.37519067e-06
    -3.39254517e-05
    8.36444936e-06
    -0.000169388539
    5.07983736e-05
    -3.91453951e-05
    -4.57867698e-06
    -1.72827917e-15
    -1.18463049e-05
    -1.78641137e-08
    3.51354686e-05
    -0.00103604777
    5.46304349e-06
    -1.08922745e-05
    -1.22348895e-15
    -2.48671694e-05
    -0.000106304926
    0.000275740772
    -4.85441538e-05
    2.37053237e-05
    5.9403815e-05
    1.74845673e-15
    -0.0011096598
    -0.00859042808
    -0.0428541651
    -0.147126655
    -0.347581417
    -0.126234563
    -0.465624399
    -0.000673189955
    0.000853157724
    -5.78056686e-16
    -0.00158065732
    0.000738170609
    -0.000798128909
    -8.66530425e-16
    -0.00143299714
    -0.000392307644
    0.000418413728
    -1.72224886e-15
    0.000523896503
    0.000860248659
    9.65758904e-05
    -5.79894239e-15
    0.000756841172
    2.68537977e-05
    -0.000122572645
    -3.04099155e-14
    0.000245777375
    1.27545452e-15
    0.000280208787
    1.97475821e-15
    -0.000288249503
    3.58681621e-07
    2.64748603e-06
    1.37414773e-05
    4.4379951e-05
    0.000128655719
    0.000162871368
    0.000193970826
    -0.000211696242
    0.000112170427
    -1.52612068e-15
    -0.000539138971
    -0.000491032543
    0.000255769284
    -1.27856375e-15
    0.00030096336
    0.000255048204
    -0.000145426283
    -3.8145299e-15
    -0.00038667579
    -0.000360915394
    0.000157168561
    -3.64781607e-15
    0.000394390675
    1.67071868e-05
    -0.000159364146
    -2.90557513e-15
    0.000199833637
    4.89802708e-16
    9.95817451e-05
    -5.70945842e-17
    -0.000135489603
    3.62092808e-07
    2.78869781e-06
    1.40122509e-05
    4.77213551e-05
    0.00011698124
    6.18879023e-05
    0.000139624038
    -1.74143952e-05
    5.47209229e-06
    2.73242911e-15
    -3.56854834e-05
    4.82274913e-05
    -1.68875215e-05
    4.15619064e-15
    -7.79693762e-05
    -0.000432596427
    -0.000134690619
    9.8857276e-15
    -0.00454046606
    0.000406446749
    0.00113447404
    -1.81823887e-14
    0.00243665461
    0.000183882711
    -0.00030091571
    2.67351772e-14
    1.63342387e-05
    1.01736994e-15
    -9.61595486e-06
    6.12799329e-16
    -2.93664005e-05
    1.80957144e-09
    -2.90507362e-09
    1.06596111e-07
    -8.99000729e-08
    4.1281381e-06
    1.62262027e-05
    -8.91462884e-06
    -2.47044578e-06
    -1.49997772e-06
    2.69644116e-15
    -4.05389332e-05
    2.5756901e-05
    5.09559107e-06
    4.79056587e-15
    0.00014308726
    -7.52694947e-05
    -5.59657532e-05
    4.33072683e-15
    0.000694637539
    -0.000219400538
    -0.000137496132
    8.83124844e-15
    0.000633720547
    -0.0001588604
    -0.000157123095
    -1.21606782e-15
    1.00306067e-06
    -2.54597607e-16
    -3.85017325e-08
    -5.47430414e-16
    -4.23890287e-06
    3.30380651e-07
    2.4184438e-06
    1.26671363e-05
    4.04041641e-05
    0.000124595042
    0.000199810856
    0.000123049338
    9.30473385e-05
    4.70106296e-05
    1.67509382e-15
    -0.000531277007
    0.000593967724
    0.000270165801
    4.5717585e-15
    0.00014838871
    -0.000208737084
    4.4644896e-05
    9.23290204e-16
    -0.000198691995
    -0.000291492571
    -0.000453263647
    8.48904656e-15
    -0.00105207955
    -0.000183890399
    0.000262505902
    5.88130152e-15
    -0.000208306907
    1.85575891e-16
    8.48168279e-05
    4.31604749e-16
    -0.000210312456
    2.48050823e-07
    1.69798125e-06
    9.78756446e-06
    2.79698235e-05
    0.000117053749
    0.000248566875
    2.78823895e-05
    -1.16612239e-05
    -4.72148003e-05
    -2.06025193e-15
    -0.000518959576
    -1.90836007e-05
    -0.000715241991
    -4.68557653e-15
    3.87078037e-05
    -4.45320039e-05
    0.000136328539
    -3.80600883e-15
    0.00132228116
    -0.000197928703
    0.000413897726
    -6.50548387e-15
    0.000995291559
    0.00044386625
    -0.000144363735
    1.4972376e-14
    -2.79894996e-05
    4.20604367e-16
    0.000117280335
    1.33053844e-16
    0.000324612753
    8.55626214e-08
    6.356355e-07