[Molden Format]
[Atoms] (Angs)
  C      1    6     -0.13173890     -1.79208980     -0.00000000
  H      2    1     -2.14962000     -1.30978739     -0.00000000
  H      3    1     -0.31599560     -2.86503115     -0.00000000
  H      4    1      0.14407746      2.04280963     -0.00000000
  C      5    6     -1.17258876      0.48030861     -0.00000000
  O      6    8     -2.25008207      1.06833796     -0.00000000
  C      7    6      1.31158357      0.28308717      0.00000000
  O      8    8      2.36361668      0.96389345      0.00000000
  N      9    7      0.07017030      1.03138997     -0.00000000
  N     10    7     -1.19586868     -0.94982644     -0.00000000
  C     11    6      1.19165158     -1.13169473      0.00000000
  H     12    1      2.09970506     -1.73445456      0.00000000
[GTO]
1    0
S    1    1.000000
   4.56324000E+03    1.96665000E-03 
S    1    1.000000
   6.82024000E+02    1.52306000E-02 
S    1    1.000000
   1.54973000E+02    7.61269000E-02 
S    1    1.000000
   4.44553000E+01    2.60801000E-01 
S    1    1.000000
   1.30290000E+01    6.16462000E-01 
S    1    1.000000
   1.82773000E+00    2.21006000E-01 
SP   3    1.000000
   2.09642000E+01    1.14660000E-01   4.02487000E-02 
   4.80331000E+00    9.19999000E-01   2.37594000E-01 
   1.45933000E+00   -3.03068000E-03   8.15854000E-01 
SP   1    1.000000
   4.83456000E-01    1.00000000E+00   1.00000000E+00 
SP   1    1.000000
   1.45585000E-01    1.00000000E+00   1.00000000E+00 
SP   1    1.000000
   4.38000000E-02    1.00000000E+00   1.00000000E+00 
SP   1    1.000000
   1.31927711E-02    1.00000000E+00   1.00000000E+00 
D    1    1.000000
   6.26000000E-01    1.00000000E+00 

2    0
S    3    1.000000
   3.38650000E+01    2.54938000E-02 
   5.09479000E+00    1.90373000E-01 
   1.15879000E+00    8.52161000E-01 
S    1    1.000000
   3.25840000E-01    1.00000000E+00 
S    1    1.000000
   1.02741000E-01    1.00000000E+00 
S    1    1.000000
   3.60000000E-02    1.00000000E+00 
P    1    1.000000
   7.50000000E-01    1.00000000E+00 

3    0
S    3    1.000000
   3.38650000E+01    2.54938000E-02 
   5.09479000E+00    1.90373000E-01 
   1.15879000E+00    8.52161000E-01 
S    1    1.000000
   3.25840000E-01    1.00000000E+00 
S    1    1.000000
   1.02741000E-01    1.00000000E+00 
S    1    1.000000
   3.60000000E-02    1.00000000E+00 
P    1    1.000000
   7.50000000E-01    1.00000000E+00 

4    0
S    3    1.000000
   3.38650000E+01    2.54938000E-02 
   5.09479000E+00    1.90373000E-01 
   1.15879000E+00    8.52161000E-01 
S    1    1.000000
   3.25840000E-01    1.00000000E+00 
S    1    1.000000
   1.02741000E-01    1.00000000E+00 
S    1    1.000000
   3.60000000E-02    1.00000000E+00 
P    1    1.000000
   7.50000000E-01    1.00000000E+00 

5    0
S    1    1.000000
   4.56324000E+03    1.96665000E-03 
S    1    1.000000
   6.82024000E+02    1.52306000E-02 
S    1    1.000000
   1.54973000E+02    7.61269000E-02 
S    1    1.000000
   4.44553000E+01    2.60801000E-01 
S    1    1.000000
   1.30290000E+01    6.16462000E-01 
S    1    1.000000
   1.82773000E+00    2.21006000E-01 
SP   3    1.000000
   2.09642000E+01    1.14660000E-01   4.02487000E-02 
   4.80331000E+00    9.19999000E-01   2.37594000E-01 
   1.45933000E+00   -3.03068000E-03   8.15854000E-01 
SP   1    1.000000
   4.83456000E-01    1.00000000E+00   1.00000000E+00 
SP   1    1.000000
   1.45585000E-01    1.00000000E+00   1.00000000E+00 
SP   1    1.000000
   4.38000000E-02    1.00000000E+00   1.00000000E+00 
SP   1    1.000000
   1.31927711E-02    1.00000000E+00   1.00000000E+00 
D    1    1.000000
   6.26000000E-01    1.00000000E+00 

6    0
S    1    1.000000
   8.58850000E+03    1.89515000E-03 
S    1    1.000000
   1.29723000E+03    1.43859000E-02 
S    1    1.000000
   2.99296000E+02    7.07320000E-02 
S    1    1.000000
   8.73771000E+01    2.40001000E-01 
S    1    1.000000
   2.56789000E+01    5.94797000E-01 
S    1    1.000000
   3.74004000E+00    2.80802000E-01 
SP   3    1.000000
   4.21175000E+01    1.13889000E-01   3.65114000E-02 
   9.62837000E+00    9.20811000E-01   2.37153000E-01 
   2.85332000E+00   -3.27447000E-03   8.19702000E-01 
SP   1    1.000000
   9.05661000E-01    1.00000000E+00   1.00000000E+00 
SP   1    1.000000
   2.55611000E-01    1.00000000E+00   1.00000000E+00 
SP   1    1.000000
   8.45000000E-02    1.00000000E+00   1.00000000E+00 
SP   1    1.000000
   2.54518072E-02    1.00000000E+00   1.00000000E+00 
D    1    1.000000
   1.29200000E+00    1.00000000E+00 

7    0
S    1    1.000000
   4.56324000E+03    1.96665000E-03 
S    1    1.000000
   6.82024000E+02    1.52306000E-02 
S    1    1.000000
   1.54973000E+02    7.61269000E-02 
S    1    1.000000
   4.44553000E+01    2.60801000E-01 
S    1    1.000000
   1.30290000E+01    6.16462000E-01 
S    1    1.000000
   1.82773000E+00    2.21006000E-01 
SP   3    1.000000
   2.09642000E+01    1.14660000E-01   4.02487000E-02 
   4.80331000E+00    9.19999000E-01   2.37594000E-01 
   1.45933000E+00   -3.03068000E-03   8.15854000E-01 
SP   1    1.000000
   4.83456000E-01    1.00000000E+00   1.00000000E+00 
SP   1    1.000000
   1.45585000E-01    1.00000000E+00   1.00000000E+00 
SP   1    1.000000
   4.38000000E-02    1.00000000E+00   1.00000000E+00 
SP   1    1.000000
   1.31927711E-02    1.00000000E+00   1.00000000E+00 
D    1    1.000000
   6.26000000E-01    1.00000000E+00 

8    0
S    1    1.000000
   8.58850000E+03    1.89515000E-03 
S    1    1.000000
   1.29723000E+03    1.43859000E-02 
S    1    1.000000
   2.99296000E+02    7.07320000E-02 
S    1    1.000000
   8.73771000E+01    2.40001000E-01 
S    1    1.000000
   2.56789000E+01    5.94797000E-01 
S    1    1.000000
   3.74004000E+00    2.80802000E-01 
SP   3    1.000000
   4.21175000E+01    1.13889000E-01   3.65114000E-02 
   9.62837000E+00    9.20811000E-01   2.37153000E-01 
   2.85332000E+00   -3.27447000E-03   8.19702000E-01 
SP   1    1.000000
   9.05661000E-01    1.00000000E+00   1.00000000E+00 
SP   1    1.000000
   2.55611000E-01    1.00000000E+00   1.00000000E+00 
SP   1    1.000000
   8.45000000E-02    1.00000000E+00   1.00000000E+00 
SP   1    1.000000
   2.54518072E-02    1.00000000E+00   1.00000000E+00 
D    1    1.000000
   1.29200000E+00    1.00000000E+00 

9    0
S    1    1.000000
   6.29348000E+03    1.96979000E-03 
S    1    1.000000
   9.49044000E+02    1.49613000E-02 
S    1    1.000000
   2.18776000E+02    7.35006000E-02 
S    1    1.000000
   6.36916000E+01    2.48937000E-01 
S    1    1.000000
   1.88282000E+01    6.02460000E-01 
S    1    1.000000
   2.72023000E+00    2.56202000E-01 
SP   3    1.000000
   3.06331000E+01    1.11906000E-01   3.83119000E-02 
   7.02614000E+00    9.21666000E-01   2.37403000E-01 
   2.11205000E+00   -2.56919000E-03   8.17592000E-01 
SP   1    1.000000
   6.84009000E-01    1.00000000E+00   1.00000000E+00 
SP   1    1.000000
   2.00878000E-01    1.00000000E+00   1.00000000E+00 
SP   1    1.000000
   6.39000000E-02    1.00000000E+00   1.00000000E+00 
SP   1    1.000000
   1.92469880E-02    1.00000000E+00   1.00000000E+00 
D    1    1.000000
   9.13000000E-01    1.00000000E+00 

10    0
S    1    1.000000
   6.29348000E+03    1.96979000E-03 
S    1    1.000000
   9.49044000E+02    1.49613000E-02 
S    1    1.000000
   2.18776000E+02    7.35006000E-02 
S    1    1.000000
   6.36916000E+01    2.48937000E-01 
S    1    1.000000
   1.88282000E+01    6.02460000E-01 
S    1    1.000000
   2.72023000E+00    2.56202000E-01 
SP   3    1.000000
   3.06331000E+01    1.11906000E-01   3.83119000E-02 
   7.02614000E+00    9.21666000E-01   2.37403000E-01 
   2.11205000E+00   -2.56919000E-03   8.17592000E-01 
SP   1    1.000000
   6.84009000E-01    1.00000000E+00   1.00000000E+00 
SP   1    1.000000
   2.00878000E-01    1.00000000E+00   1.00000000E+00 
SP   1    1.000000
   6.39000000E-02    1.00000000E+00   1.00000000E+00 
SP   1    1.000000
   1.92469880E-02    1.00000000E+00   1.00000000E+00 
D    1    1.000000
   9.13000000E-01    1.00000000E+00 

11    0
S    1    1.000000
   4.56324000E+03    1.96665000E-03 
S    1    1.000000
   6.82024000E+02    1.52306000E-02 
S    1    1.000000
   1.54973000E+02    7.61269000E-02 
S    1    1.000000
   4.44553000E+01    2.60801000E-01 
S    1    1.000000
   1.30290000E+01    6.16462000E-01 
S    1    1.000000
   1.82773000E+00    2.21006000E-01 
SP   3    1.000000
   2.09642000E+01    1.14660000E-01   4.02487000E-02 
   4.80331000E+00    9.19999000E-01   2.37594000E-01 
   1.45933000E+00   -3.03068000E-03   8.15854000E-01 
SP   1    1.000000
   4.83456000E-01    1.00000000E+00   1.00000000E+00 
SP   1    1.000000
   1.45585000E-01    1.00000000E+00   1.00000000E+00 
SP   1    1.000000
   4.38000000E-02    1.00000000E+00   1.00000000E+00 
SP   1    1.000000
   1.31927711E-02    1.00000000E+00   1.00000000E+00 
D    1    1.000000
   6.26000000E-01    1.00000000E+00 

12    0
S    3    1.000000
   3.38650000E+01    2.54938000E-02 
   5.09479000E+00    1.90373000E-01 
   1.15879000E+00    8.52161000E-01 
S    1    1.000000
   3.25840000E-01    1.00000000E+00 
S    1    1.000000
   1.02741000E-01    1.00000000E+00 
S    1    1.000000
   3.60000000E-02    1.00000000E+00 
P    1    1.000000
   7.50000000E-01    1.00000000E+00 

[MO]
Sym=X
Ene=0.943325
Spin=Alpha
Occup=1
1    1.89174499e-05
2    0.000146377376
3    0.000730833489
4    0.00250730259
5    0.00594800185
6    0.00232933824
7    0.00791280534
8    -5.13582249e-05
9    -8.50966549e-06
10    -7.33060202e-17
11    -0.000475776468
12    -0.000669808755
13    -0.000345224915
14    -1.38375921e-15
15    -0.000206799699
16    7.83428336e-05
17    -5.66360363e-05
18    -5.46396593e-16
19    0.00240693247
20    0.000271988216
21    0.000956858235
22    2.67648707e-15
23    -0.0010237398
24    -0.000317944761
25    7.30686065e-05
26    3.82347652e-14
27    -0.000308672733
28    3.34527151e-16
29    0.00010984055
30    -8.17351844e-16
31    -0.000211916565
32    -9.21039012e-06
33    -1.57854876e-06
34    0.000128504252
35    0.000159403386
36    -7.74858153e-06
37    2.80957843e-06
38    7.89024297e-16
39    -4.65882401e-06
40    -8.690582e-05
41    0.000150731206
42    0.000355340419
43    -4.46198839e-05
44    -3.62704156e-05
45    -1.95281293e-16
46    -5.46512692e-06
47    -4.37276275e-05
48    3.99302913e-05
49    -1.98421532e-05
50    -1.94074798e-06
51    1.15115552e-05
52    1.76871561e-15
53    -8.05538264e-08
54    -6.39601064e-07
55    -3.07569042e-06
56    -1.10064532e-05
57    -2.17420721e-05
58    8.99769818e-06
59    -4.43588884e-05
60    3.07108915e-06
61    -5.03197284e-06
62    6.53712065e-15
63    -3.83871482e-05
64    -1.45012302e-05
65    1.97366465e-05
66    1.2083453e-14
67    -1.02358981e-05
68    0.000170893347
69    -9.83775868e-05
70    1.06577451e-14
71    -0.00085975113
72    -0.000165852146
73    0.000256743184
74    1.06894262e-14
75    -0.000661860617
76    -0.000103337033
77    -2.8720315e-05
78    -2.58212006e-14
79    -2.86400891e-08
80    1.52307655e-15
81    1.83002611e-07
82    -1.08411088e-15
83    6.72576186e-06
84    4.14107587e-10
85    -3.02587797e-09
86    2.96119676e-08
87    -6.54683129e-08
88    1.4725732e-06
89    6.19768353e-06
90    -3.63852164e-06
91    1.20338309e-06
92    -8.25150288e-07
93    4.51615625e-15
94    -1.57962301e-05
95    -6.82038763e-06
96    4.82934999e-06
97    9.40997874e-15
98    6.66277137e-05
99    3.44084812e-05
100    -1.90724865e-05
101    1.34412785e-14
102    0.000284697646
103    8.12034367e-05
104    -6.0938793e-05
105    9.71612893e-15
106    -0.000261595401
107    -9.12069621e-05
108    -7.79761738e-05
109    1.87573637e-14
110    4.60640515e-07
111    -1.29176768e-15
112    -7.06086326e-07
113    1.55727428e-15
114    -1.39649914e-07
115    1.23084715e-05
116    9.52943002e-05
117    0.000475439477
118    0.00163284064
119    0.00386182972
120    0.00152384266
121    0.00519333773
122    3.5432956e-06
123    0.000109102049
124    -1.75960401e-15
125    -0.000535561069
126    5.94760204e-05
127    0.000648014395
128    -4.00507811e-15
129    -0.000192107596
130    -0.000175943079
131    -8.47864203e-05
132    -3.72565708e-15
133    0.00337650098
134    -0.000889803193
135    -0.0010814383
136    1.44808961e-14
137    0.00168944541
138    -0.000119601196
139    -1.25234158e-05
140    3.61297658e-14
141    -6.98969548e-05
142    8.81943128e-16
143    0.000112843374
144    -1.14369971e-15
145    0.000324329113
146    -8.86137177e-09
147    -8.25989057e-08
148    -3.0114188e-07
149    -1.42250224e-06
150    6.55316959e-07
151    1.37271874e-05
152    -1.62607673e-05
153    -5.21757617e-06
154    -1.95892008e-05
155    -4.64663751e-16
156    -2.08431098e-05
157    1.22614675e-05
158    2.18117141e-05
159    -4.89486831e-15
160    4.99238798e-05
161    -3.16249028e-05
162    -2.32182439e-05
163    -1.18009014e-15
164    0.000365563198
165    -2.72267438e-05
166    -9.12365729e-06
167    -1.11305279e-14
168    0.0015788853
169    -0.000321999081
170    -7.90069231e-05
171    -8.593042e-15
172    -1.67502309e-05
173    4.42785462e-16
174    -8.90879591e-08
175    3.29595155e-16
176    1.91474039e-05
177    -1.16053688e-08
178    -1.10017617e-07
179    -3.89584496e-07
180    -1.90756913e-06
181    1.08876649e-06
182    2.01628667e-05
183    -2.1242585e-05
184    1.46968062e-05
185    -1.13088905e-05
186    2.23545318e-15
187    -2.02286377e-05
188    -3.14388472e-05
189    1.88447317e-05
190    3.75554703e-15
191    -3.23117945e-05
192    2.74801582e-05
193    6.67184361e-05
194    6.93879576e-15
195    -0.00036533596
196    5.79414465e-05
197    3.96587771e-05
198    -2.51291389e-15
199    -0.000935056211
200    -0.000678179597
201    0.000147841762
202    -6.44249564e-15
203    2.39747695e-05
204    4.69503471e-17
205    1.1562283e-06
206    -1.36749527e-15
207    -1.0304257e-05
208    -1.44587379e-08
209    -1.48462848e-07
210    -4.58302771e-07
211    -2.59586213e-06
212    3.80823894e-06
213    3.82556057e-05
214    -3.31855458e-05
215    1.74919411e-05
216    -1.28695917e-05
217    1.58780123e-15
218    -7.53614915e-05
219    -5.54847613e-05
220    4.69305064e-05
221    5.02035959e-15
222    9.90186648e-05
223    8.82269997e-05
224    -3.569304e-05
225    7.63086476e-15
226    -0.000115406077
227    0.000177938626
228    5.52732288e-05
229    5.44118859e-15
230    8.53263464e-05
231    0.000279381612
232    -9.69391526e-06
233    -1.18034557e-14
234    3.15688859e-05
235    1.73177961e-15
236    1.51917195e-06
237    -7.82233903e-16
238    -1.0286733e-05
239    -0.00110858985
240    -0.00858250665
241    -0.0428110739
242    -0.146994789
243    -0.347209043
244    -0.127428124
245    -0.464606858
246    0.000596294603
247    -0.000181095835
248    -1.18253036e-15
249    -0.00256071934
250    -0.000360719827
251    1.35503921e-05
252    -5.70074078e-15
253    0.00025372566
254    0.000351274936
255    -5.92244913e-05
256    -2.36088626e-15
257    -0.00563492682
258    0.00121984531
259    -0.00119937219
260    -1.32563267e-14
261    0.000123297259
262    -0.00011445917
263    -0.000409797474
264    -4.90655069e-14
265    0.000102887705
266    -1.55379355e-16
267    -0.000484232741
268    -5.33506391e-16
269    5.08536436e-05
270    -0.000357708072
271    -0.000461311106
272    -0.000194224525
273    -0.00058597083
274    0.000241949589
275    -0.000171162339
276    -1.02258839e-15
Sym=X
Ene=0.94691
Spin=Alpha
Occup=1
1    -0.00110956754
2    -0.00858975394
3    -0.0428504207
4    -0.147112912
5    -0.347544143
6    -0.12611795
7    -0.4656739
8    0.000394128634
9    -0.00113303196
10    -7.56834261e-16
11    -0.00131316068
12    -0.000284702115
13    0.00102650958
14    -3.177415e-15
15    -0.00142914945
16    -4.12634791e-05
17    -0.00139084091
18    -1.4232229e-16
19    -0.00319621756
20    -6.58579298e-05
21    -0.00215475135
22    1.26003573e-14
23    -0.00277737758
24    -0.000640231147
25    -0.000152671137
26    -1.99536835e-14
27    -0.00016790554
28    -7.87977581e-16
29    0.000454822622
30    6.67452492e-16
31    0.000240114071
32    -2.69651632e-05
33    -8.39954154e-05
34    0.000286415381
35    0.000592642446
36    -5.64192652e-05
37    -1.09819283e-05
38    -2.04258153e-15
39    -0.000267645568
40    -1.89810635e-05
41    -0.00103230595
42    -0.00082584359
43    -1.40756509e-05
44    -7.60539581e-05
45    -6.87376251e-16
46    -1.29865736e-05
47    4.08912118e-05
48    -0.000417839909
49    -0.00053660056
50    -3.97872817e-06
51    1.92060012e-07
52    -7.81469904e-16
53    -3.22474399e-07
54    -2.52782274e-06
55    -1.23872296e-05
56    -4.33887337e-05
57    -9.38087239e-05
58    3.30826084e-06
59    -0.000158380526
60    5.46747789e-06
61    -2.16653008e-05
62    -4.5262309e-15
63    -8.40107845e-05
64    -1.14150384e-05
65    6.93881158e-05
66    -8.33178826e-15
67    -0.000289601875
68    0.000717055674
69    -0.000249064817
70    -8.88453365e-15
71    -6.02654072e-05
72    0.000324702057
73    -0.000647657677
74    1.53218328e-14
75    -0.000930315415
76    -0.000198124018
77    -3.54077017e-06
78    2.48121364e-14
79    2.02250864e-05
80    2.70459391e-17
81    -4.37434789e-06
82    1.0336424e-15
83    3.73375423e-05
84    2.58333722e-09
85    -7.94068501e-09
86    1.60653846e-07
87    -1.99797474e-07
88    6.75040442e-06
89    2.73443719e-05
90    -1.52807659e-05
91    3.53700766e-06
92    -2.30650586e-06
93    -3.15453464e-15
94    -7.40757298e-05
95    -2.4239144e-05
96    2.84413812e-05
97    -3.75897077e-15
98    0.000334819356
99    0.000156953508
100    -0.000111172454
101    -7.75804344e-15
102    0.00093961661
103    0.000156367505
104    -9.25343328e-05
105    -6.33768854e-15
106    0.000662484212
107    0.000188611528
108    2.60363415e-05
109    -1.20515278e-14
110    6.78452169e-07
111    1.09224115e-16
112    -4.4429074e-07
113    -5.61105139e-16
114    4.12911848e-06
115    1.71497969e-07
116    1.27244521e-06
117    6.74641981e-06
118    2.16311254e-05
119    6.60250496e-05
120    8.76316879e-05
121    3.53502535e-05
122    -5.68234559e-06
123    -2.27763247e-05
124    1.22158258e-15
125    -0.000148319085
126    3.36862121e-05
127    0.000146220137
128    3.08433449e-15
129    -0.000155318235
130    -3.72165473e-05
131    -5.94258866e-06
132    3.74909343e-15
133    -0.00125204535
134    -0.000417453824
135    -0.000107057147
136    2.04906776e-14
137    0.00247185341
138    -8.83282653e-05
139    -0.000291868959
140    -2.89712142e-14
141    -3.9548599e-05
142    -3.00887888e-16
143    5.04516102e-06
144    1.86547574e-15
145    6.43782263e-05
146    8.65235642e-10
147    1.29875327e-09
148    4.4964595e-08
149    8.52118042e-09
150    1.38364196e-06
151    5.08394666e-06
152    -2.50751355e-06
153    -1.90036398e-06
154    -3.09094147e-06
155    2.75161442e-15
156    -1.14780877e-05
157    1.42636292e-05
158    2.34805291e-05
159    5.00684843e-16
160    -7.55773545e-06
161    -4.58968533e-05
162    -2.9884362e-05
163    6.98455417e-15
164    0.000365530514
165    -3.07890551e-06
166    -3.66257288e-05
167    5.13983327e-16
168    0.000528763614
169    -0.000104225699
170    2.13342574e-05
171    1.20308379e-14
172    -3.53117701e-06
173    -5.49318668e-20
174    5.05470381e-07
175    -3.81278209e-16
176    6.25824841e-06
177    -1.61605728e-09
178    -4.82866654e-08
179    2.19180372e-08
180    -9.25236049e-07
181    6.76625635e-06
182    3.24947719e-05
183    -2.18124678e-05
184    1.36665944e-06
185    -8.39879202e-06
186    -1.1493431e-15
187    -5.31197264e-05
188    -1.55904571e-08
189    3.04839446e-05
190    -4.13993328e-15
191    -0.000154832038
192    6.75365389e-05
193    7.32587331e-05
194    -1.78211574e-16
195    -0.000643288554
196    4.06996809e-05
197    0.0010404256
198    -1.61435712e-14
199    -0.00141431157
200    1.43143689e-06
201    0.000437005012
202    -8.51728213e-16
203    -2.59458489e-07
204    3.81626985e-16
205    3.70941893e-06
206    1.85012118e-15
207    -6.71365694e-06
208    3.50151434e-07
209    2.52257931e-06
210    1.35197381e-05
211    4.20403852e-05
212    0.000140877236
213    0.000259753363
214    0.00010533818
215    -8.18793283e-05
216    5.87917394e-05
217    -3.35326938e-15
218    -0.000653177205
219    -0.000651842405
220    0.000493887676
221    -4.64490492e-15
222    0.000210630776
223    4.25854011e-05
224    -1.63797959e-05
225    -6.57183334e-15
226    0.00183032355
227    0.00107722884
228    9.69911172e-05
229    -1.67526784e-14
230    0.0011024728
231    0.000480235542
232    0.000399533446
233    6.59957103e-16
234    0.000351055693
235    -5.78323814e-16
236    0.000109428105
237    -7.72780499e-17
238    -8.44256366e-05
239    -1.91465885e-05
240    -0.000148238191
241    -0.000739285171
242    -0.00253841524
243    -0.0059891749
244    -0.00211088878
245    -0.00800899499
246    7.05957741e-05
247    2.43075522e-05
248    1.54591294e-15
249    -0.000420651089
250    0.000506168065
251    0.000252169812
252    -8.05210312e-16
253    0.000767637119
254    -0.000590899341
255    0.000140441649
256    4.06475233e-15
257    0.00247513347
258    -0.000807614782
259    0.00122365815
260    -1.57635516e-14
261    0.0011578907
262    -0.000473097459
263    -0.000551096773
264    4.42735086e-14
265    -0.000235258876
266    4.55069877e-16
267    5.33208939e-06
268    3.22224473e-16
269    -0.000200741754
270    -3.27454413e-05
271    -7.6753764e-05
272    0.000407896025
273    0.000721524193
274    8.98665164e-05
275    -5.76761069e-06
276    1.18424696e-15
Sym=X
Ene=0.945296
Spin=Alpha
Occup=1
1    2.92195191e-08
2    1.73213126e-07
3    1.24818388e-06
4    2.77824439e-06
5    2.01058135e-05
6    5.54076018e-05
7    -1.94365785e-05
8    1.95266078e-05
9    2.13088921e-05
10    2.75417698e-15
11    -7.55890997e-05
12    -9.07457881e-05
13    -9.10267053e-05
14    6.27956909e-15
15    -0.000104892083
16    2.13240847e-05
17    -0.000212881034
18    5.87044608e-15
19    0.00167369915
20    3.35679332e-05
21    0.000602007727
22    1.91833248e-14
23    0.00193647557
24    0.000165953606
25    0.000195010377
26    8.49400743e-16
27    -6.05320722e-05
28    6.51088334e-16
29    8.58657937e-06
30    4.79167967e-16
31    -8.79922418e-07
32    -1.17493743e-05
33    5.25797069e-05
34    -0.000292992298
35    -0.000378564418
36    -5.15327874e-09
37    1.90842e-06
38    9.20791711e-16
39    7.53494121e-06
40    -9.55260932e-05
41    1.28316571e-05
42    2.43672239e-05
43    -1.52487299e-05
44    -1.22494772e-05
45    1.78003004e-15
46    -3.19057105e-05
47    -4.99846415e-05
48    3.4134725e-06
49    0.000338439135
50    -9.05753036e-06
51    4.33929104e-05
52    -1.25001152e-15
53    -3.75554964e-07
54    -2.93824923e-06
55    -1.44379933e-05
56    -5.04057235e-05
57    -0.000110312456
58    -1.29441317e-07
59    -0.000180972627
60    1.87797864e-05
61    5.93889647e-07
62    -1.63193277e-15
63    -7.22982757e-05
64    -6.90481982e-05
65    2.86504503e-06
66    -3.99038131e-15
67    -5.63455641e-05
68    0.000393467087
69    1.83363599e-05
70    -6.4869334e-16
71    -0.00115588099
72    -0.00013370656
73    0.00056538849
74    1.40938732e-14
75    -0.000786639013
76    -5.2331582e-05
77    3.62076775e-05
78    1.53441665e-14
79    -6.13772723e-06
80    -1.57328421e-15
81    2.39070552e-06
82    -3.78422591e-16
83    -4.77526446e-05
84    1.64698355e-09
85    5.96033002e-10
86    8.96175048e-08
87    -1.96541899e-08
88    3.05401469e-06
89    1.16231251e-05
90    -6.09933469e-06
91    1.06249912e-06
92    -7.07855347e-07
93    -1.66745464e-15
94    -3.17872688e-05
95    -1.89831661e-05
96    1.42668975e-06
97    -1.09810516e-15
98    0.00012436724
99    5.887767e-05
100    -6.76894892e-05
101    -8.71450411e-15
102    0.000517641819
103    0.000188054163
104    -3.58159355e-05
105    1.37423043e-15
106    -0.000461073449
107    -0.000161813468
108    -0.000234572352
109    -1.16823062e-14
110    -5.92051077e-06
111    1.50639779e-16
112    -1.70676389e-06
113    -8.89685119e-16
114    -5.96050131e-06
115    -0.00110973776
116    -0.00859106937
117    -0.0428571709
118    -0.147136374
119    -0.34758652
120    -0.125984857
121    -0.46582047
122    0.00038692398
123    -0.000536978871
124    1.8951888e-15
125    -0.00127896283
126    -0.000417634368
127    0.000359556945
128    3.02456053e-15
129    -0.00241577355
130    0.000326609333
131    -0.000425396132
132    4.1551037e-16
133    0.00346810216
134    -0.000757795522
135    -0.00270766653
136    3.04822441e-14
137    -0.000843508369
138    -0.000181562206
139    0.000410226015
140    2.0064928e-15
141    -0.000248692284
142    -1.95807728e-15
143    0.000529196065
144    -5.61412489e-16
145    9.46535341e-05
146    3.13430549e-07
147    2.2753763e-06
148    1.20964899e-05
149    3.8103859e-05
150    0.000121964413
151    0.000194428866
152    0.000142665581
153    0.000178532277
154    0.000116822624
155    -2.18431502e-16
156    -0.000607248792
157    0.0005379299
158    0.000366124238
159    -5.31576819e-16
160    0.000273133393
161    -0.0002668676
162    -0.000117325084
163    4.16696624e-15
164    0.000871803999
165    -5.17003089e-05
166    6.17326808e-05
167    -4.04894295e-15
168    0.00312619491
169    -0.000687899037
170    -5.35725628e-05
171    -6.08862705e-17
172    -0.000240066405
173    -2.09192681e-16
174    0.000108748919
175    -1.76439503e-16
176    -9.26737792e-05
177    2.35861139e-07
178    1.62766848e-06
179    9.27742544e-06
180    2.68215861e-05
181    0.000107773919
182    0.000213049708
183    3.74808479e-05
184    -3.42694212e-05
185    3.27241081e-05
186    -6.39992074e-16
187    -0.000464934605
188    -0.000540209681
189    0.000309328925
190    -3.59475689e-15
191    0.000244634563
192    0.000353181449
193    -2.24989566e-05
194    3.14924066e-15
195    0.000997218509
196    0.000825594152
197    -0.000226498011
198    -1.55187712e-14
199    -0.000729832733
200    -0.00133358428
201    -0.000128983084
202    -1.02764e-14
203    0.00025196592
204    -8.39069217e-16
205    7.61953773e-05
206    3.51435713e-16
207    -0.000132062752
208    -1.34468597e-09
209    -5.2904371e-08
210    4.76115775e-08
211    -1.02288293e-06
212    8.2238511e-06
213    3.92173434e-05
214    -2.55754841e-05
215    6.2746083e-06
216    3.88367748e-06
217    1.95968547e-15
218    -8.39328153e-05
219    -2.24003079e-05
220    -1.53559733e-05
221    1.99882274e-15
222    0.000206167325
223    6.43567521e-05
224    4.7073845e-05
225    5.68153801e-15
226    0.000278015885
227    -0.000561642174
228    4.57539289e-05
229    -9.91270069e-15
230    -0.00060101742
231    1.49722392e-05
232    -0.00029635077
233    -5.32907883e-15
234    2.9724108e-06
235    -1.27866802e-15
236    2.82882674e-06
237    6.14440874e-16
238    8.99937129e-06
239    -1.18923546e-05
240    -9.19780276e-05
241    -0.000459354706
242    -0.00157443512
243    -0.00373825802
244    -0.00137067374
245    -0.00490215115
246    3.56699844e-06
247    -0.000117175349
248    4.0632678e-15
249    -0.000323718953
250    -2.39480953e-05
251    -0.000394586469
252    5.76714606e-15
253    0.000595118883
254    -0.00017892041
255    0.000364134508
256    1.07555076e-14
257    -0.00688102767
258    0.000208979154
259    -0.0015803561
260    -1.43253948e-14
261    -0.000193504617
262    0.000417417075
263    0.000316947465
264    -2.38234969e-15
265    -6.59209551e-05
266    5.56983586e-16
267    -2.53480056e-05
268    -6.1278405e-16
269    0.000245378787
270    -3.27154186e-05
271    -0.000113149199
272    0.000244273035
273    -0.000203926734
274    4.88189604e-05
275    -8.23067425e-05
276    1.58495601e-15
Sym=X
Ene=0.958603
Spin=Alpha
Occup=1
1    2.93832407e-07
2    2.25534832e-06
3    1.1386769e-05
4    3.85888826e-05
5    9.71135955e-05
6    6.63829311e-05
7    0.000106242967
8    -1.22088899e-05
9    9.68646103e-06
10    -1.13815718e-15
11    -7.81744912e-05
12    5.17450019e-05
13    -3.89028965e-05
14    -5.24784949e-15
15    0.000303551034
16    -1.47565032e-05
17    0.000149721203
18    6.43630179e-16
19    -0.00265516058
20    -0.000453053205
21    -0.00134567212
22    -1.66310647e-14
23    -0.00383031116
24    -0.000340280038
25    -0.000334297829
26    1.15157102e-14
27    4.96497635e-05
28    -6.02156339e-16
29    -1.4322594e-05
30    7.85480287e-16
31    4.38001426e-06
32    -3.39262369e-05
33    8.36342867e-06
34    -0.000169388237
35    5.08018666e-05
36    -3.91462478e-05
37    -4.57889773e-06
38    -1.72829769e-15
39    -1.18494899e-05
40    -1.81797308e-08
41    3.51217568e-05
42    -0.00103606079
43    5.4632122e-06
44    -1.08930648e-05
45    -1.2234828e-15
46    -2.48680733e-05
47    -0.000106304529
48    0.000275735052
49    -4.85482227e-05
50    2.37052681e-05
51    5.94042409e-05
52    1.74842118e-15
53    -0.00110965981
54    -0.00859042812
55    -0.0428541653
56    -0.147126655
57    -0.347581418
58    -0.126234563
59    -0.465624402
60    -0.000673189918
61    0.000853157509
62    -5.7817139e-16
63    -0.00158065988
64    0.000738169439
65    -0.000798127813
66    -8.66765697e-16
67    -0.00143300001
68    -0.000392297586
69    0.000418412098
70    -1.72241296e-15
71    0.000523900407
72    0.000860254761
73    9.65684817e-05
74    -5.79888258e-15
75    0.000756834987
76    2.68527637e-05
77    -0.00012257289
78    -3.04094838e-14
79    0.00024577735
80    1.27542726e-15
81    0.00028020889
82    1.97477571e-15
83    -0.000288249372
84    3.58524487e-07
85    2.64629026e-06
86    1.37356172e-05
87    4.43599958e-05
88    0.000128606442
89    0.000162848368
90    0.000193899621
91    -0.00021169641
92    0.000112170514
93    -1.52620557e-15
94    -0.000539140769
95    -0.000491032915
96    0.000255769598
97    -1.27869464e-15
98    0.000300967516
99    0.000255050078
100    -0.00014542795
101    -3.81478716e-15
102    -0.000386663411
103    -0.00036091299
104    0.000157167769
105    -3.64796781e-15
106    0.000394399722
107    1.67092903e-05
108    -0.000159364727
109    -2.90585759e-15
110    0.000199833617
111    4.89816476e-16
112    9.95817616e-05
113    -5.71190263e-17
114    -0.000135489624
115    3.54516281e-07