                  Welcome to Q-Chem
     A Quantum Leap Into The Future Of Chemistry


 Q-Chem 5.2 (devel), Q-Chem, Inc., Pleasanton, CA (2019)

 Yihan Shao,  Zhengting Gan,  E. Epifanovsky,  A. T. B. Gilbert,  M. Wormit,  
 J. Kussmann,  A. W. Lange,  A. Behn,  Jia Deng,  Xintian Feng,  D. Ghosh,  
 M. Goldey,  P. R. Horn,  L. D. Jacobson,  I. Kaliman,  T. Kus,  A. Landau,  
 Jie Liu,  E. I. Proynov,  R. M. Richard,  R. P. Steele,  E. J. Sundstrom,  
 H. L. Woodcock III,  P. M. Zimmerman,  D. Zuev,  B. Albrecht,  E. Alguire,  
 S. A. Baeppler,  D. Barton,  Z. Benda,  Y. A. Bernard,  E. J. Berquist,  
 K. B. Bravaya,  H. Burton,  D. Casanova,  Chun-Min Chang,  Yunqing Chen,  
 A. Chien,  K. D. Closser,  M. P. Coons,  S. Coriani,  S. Dasgupta,  
 A. L. Dempwolff,  M. Diedenhofen,  Hainam Do,  R. G. Edgar,  Po-Tung Fang,  
 S. Faraji,  S. Fatehi,  Qingguo Feng,  K. D. Fenk,  J. Fosso-Tande,  
 J. Gayvert,  Qinghui Ge,  A. Ghysels,  G. Gidofalvi,  J. Gomes,  
 J. Gonthier,  A. Gunina,  D. Hait,  M. W. D. Hanson-Heine,  
 P. H. P. Harbach,  A. W. Hauser,  M. F. Herbst,  J. E. Herr,  
 E. G. Hohenstein,  Z. C. Holden,  Kerwin Hui,  B. C. Huynh,  T.-C. Jagau,  
 Hyunjun Ji,  B. Kaduk,  K. Khistyaev,  Jaehoon Kim,  P. Klunzinger,  K. Koh,  
 D. Kosenkov,  L. Koulias,  T. Kowalczyk,  C. M. Krauter,  A. Kunitsa,  
 Ka Un Lao,  A. Laurent,  K. V. Lawler,  Joonho Lee,  D. Lefrancois,  
 S. Lehtola,  D. S. Levine,  Yi-Pei Li,  You-Sheng Lin,  Fenglai Liu,  
 E. Livshits,  A. Luenser,  P. Manohar,  E. Mansoor,  S. F. Manzer,  
 Shan-Ping Mao,  Yuezhi Mao,  N. Mardirossian,  A. V. Marenich,  
 T. Markovich,  L. A. Martinez-Martinez,  S. A. Maurer,  N. J. Mayhall,  
 S. C. McKenzie,  J.-M. Mewes,  P. Morgante,  A. F. Morrison,  
 J. W. Mullinax,  K. Nanda,  T. S. Nguyen-Beck,  R. Olivares-Amaya,  
 J. A. Parkhill,  Zheng Pei,  T. M. Perrine,  F. Plasser,  P. Pokhilko,  
 S. Prager,  A. Prociuk,  E. Ramos,  D. R. Rehn,  F. Rob,  M. Scheurer,  
 M. Schneider,  N. Sergueev,  S. M. Sharada,  S. Sharma,  D. W. Small,  
 T. Stauch,  T. Stein,  Yu-Chuan Su,  A. J. W. Thom,  A. Tkatchenko,  
 T. Tsuchimochi,  N. M. Tubman,  L. Vogt,  M. L. Vidal,  O. Vydrov,  
 M. A. Watson,  J. Wenzel,  M. de Wergifosse,  T. A. Wesolowski,  A. White,  
 J. Witte,  A. Yamada,  Jun Yang,  K. Yao,  S. Yeganeh,  S. R. Yost,  
 Zhi-Qiang You,  A. Zech,  Igor Ying Zhang,  Xing Zhang,  Yan Zhao,  
 Ying Zhu,  B. R. Brooks,  G. K. L. Chan,  C. J. Cramer,  M. S. Gordon,  
 W. J. Hehre,  A. Klamt,  M. W. Schmidt,  C. D. Sherrill,  D. G. Truhlar,  
 A. Aspuru-Guzik,  R. Baer,  A. T. Bell,  N. A. Besley,  Jeng-Da Chai,  
 A. E. DePrince, III,  R. A. DiStasio Jr.,  A. Dreuw,  B. D. Dunietz,  
 T. R. Furlani,  Chao-Ping Hsu,  Yousung Jung,  Jing Kong,  D. S. Lambrecht,  
 WanZhen Liang,  C. Ochsenfeld,  V. A. Rassolov,  L. V. Slipchenko,  
 J. E. Subotnik,  T. Van Voorhis,  J. M. Herbert,  A. I. Krylov,  
 P. M. W. Gill,  M. Head-Gordon

 Contributors to earlier versions of Q-Chem not listed above: 
 R. D. Adamson,  B. Austin,  J. Baker,  G. J. O. Beran,  K. Brandhorst,  
 S. T. Brown,  E. F. C. Byrd,  A. K. Chakraborty,  C.-L. Cheng,  
 Siu Hung Chien,  D. M. Chipman,  D. L. Crittenden,  H. Dachsel,  
 R. J. Doerksen,  A. D. Dutoi,  L. Fusti-Molnar,  W. A. Goddard III,  
 A. Golubeva-Zadorozhnaya,  S. R. Gwaltney,  G. Hawkins,  A. Heyden,  
 S. Hirata,  G. Kedziora,  F. J. Keil,  C. Kelley,  Jihan Kim,  R. A. King,  
 R. Z. Khaliullin,  P. P. Korambath,  W. Kurlancheek,  A. M. Lee,  M. S. Lee,  
 S. V. Levchenko,  Ching Yeh Lin,  D. Liotard,  R. C. Lochan,  I. Lotan,  
 P. E. Maslen,  N. Nair,  D. P. O'Neill,  D. Neuhauser,  E. Neuscamman,  
 C. M. Oana,  R. Olson,  B. Peters,  R. Peverati,  P. A. Pieniazek,  
 Y. M. Rhee,  J. Ritchie,  M. A. Rohrdanz,  E. Rosta,  N. J. Russ,  
 H. F. Schaefer III,  N. E. Schultz,  N. Shenvi,  A. C. Simmonett,  A. Sodt,  
 D. Stuck,  K. S. Thanthiriwatte,  V. Vanovschi,  Tao Wang,  A. Warshel,  
 C. F. Williams,  Q. Wu,  X. Xu,  W. Zhang

 Please cite Q-Chem as follows:
 Y. Shao et al., Mol. Phys. 113, 184-215 (2015)
 DOI: 10.1080/00268976.2014.952696

 Q-Chem 5.2.0 for Intel X86 EM64T Linux

 Parts of Q-Chem use Armadillo 8.300.2 (Tropical Shenanigans).
 http://arma.sourceforge.net/

 Q-Chem begins on Wed Jun 12 18:21:16 2019  

n-62-23-25
Host: 0

     Scratch files written to /work1/malop/qc_8407505.hnode2/qchem7448//
NAlpha2: 58
NElect   58
Mult     1

Checking the input file for inconsistencies... 	...done.

--------------------------------------------------------------
User input:
--------------------------------------------------------------
$comment
Uracil XPS C K-edge 6-311(2+,+)G** (uc)
Optimized geometry for S2 at ccsd / aug-cc-pVDZ
$end

$molecule
0 1
C        -0.0581949473   -1.7976206857    0.0000000000
H        -2.0937197909   -1.3962500862    0.0000000000
H        -0.1994763750   -2.8770618511    0.0000000000
H         0.0643245546    2.0452320710    0.0000000000
C        -1.1889222032    0.4314192107    0.0000000000
O        -2.2890290202    0.9759697793    0.0000000000
C         1.3011427138    0.3335152409    0.0000000000
O         2.3251617259    1.0557727555    0.0000000000
N         0.0308489641    1.0316683625    0.0000000000
N        -1.1550971105   -0.9985052937    0.0000000000
C         1.2377799195   -1.0849263853    0.0000000000
H         2.1691699442   -1.6509592078    0.0000000000
$end

$rem
JOBTYPE SP
BASIS GENERAL
METHOD HF
$end

$basis
H    0
6-311(2+,+)G**
****
O    0
S    1    1.000000
   8.58850000E+03    1.89515000E-03
S    1    1.000000
   1.29723000E+03    1.43859000E-02
S    1    1.000000
   2.99296000E+02    7.07320000E-02
S    1    1.000000
   8.73771000E+01    2.40001000E-01
S    1    1.000000
   2.56789000E+01    5.94797000E-01
S    1    1.000000
   3.74004000E+00    2.80802000E-01
SP   3    1.000000
   4.21175000E+01    1.13889000E-01   3.65114000E-02
   9.62837000E+00    9.20811000E-01   2.37153000E-01
   2.85332000E+00   -3.27447000E-03   8.19702000E-01
SP   1    1.000000
   9.05661000E-01    1.00000000E+00   1.00000000E+00
SP   1    1.000000
   2.55611000E-01    1.00000000E+00   1.00000000E+00
SP   1    1.000000
   8.45000000E-02    1.00000000E+00   1.00000000E+00
SP   1    1.000000
   2.54518072E-02    1.00000000E+00   1.00000000E+00
D    1    1.000000
   1.29200000E+00    1.00000000E+00
****
N    0
S    1    1.000000
   6.29348000E+03    1.96979000E-03
S    1    1.000000
   9.49044000E+02    1.49613000E-02
S    1    1.000000
   2.18776000E+02    7.35006000E-02
S    1    1.000000
   6.36916000E+01    2.48937000E-01
S    1    1.000000
   1.88282000E+01    6.02460000E-01
S    1    1.000000
   2.72023000E+00    2.56202000E-01
SP   3    1.000000
   3.06331000E+01    1.11906000E-01   3.83119000E-02
   7.02614000E+00    9.21666000E-01   2.37403000E-01
   2.11205000E+00   -2.56919000E-03   8.17592000E-01
SP   1    1.000000
   6.84009000E-01    1.00000000E+00   1.00000000E+00
SP   1    1.000000
   2.00878000E-01    1.00000000E+00   1.00000000E+00
SP   1    1.000000
   6.39000000E-02    1.00000000E+00   1.00000000E+00
SP   1    1.000000
   1.92469880E-02    1.00000000E+00   1.00000000E+00
D    1    1.000000
   9.13000000E-01    1.00000000E+00
****
C    0
S    1    1.000000
   4.56324000E+03    1.96665000E-03
S    1    1.000000
   6.82024000E+02    1.52306000E-02
S    1    1.000000
   1.54973000E+02    7.61269000E-02
S    1    1.000000
   4.44553000E+01    2.60801000E-01
S    1    1.000000
   1.30290000E+01    6.16462000E-01
S    1    1.000000
   1.82773000E+00    2.21006000E-01
SP   3    1.000000
   2.09642000E+01    1.14660000E-01   4.02487000E-02
   4.80331000E+00    9.19999000E-01   2.37594000E-01
   1.45933000E+00   -3.03068000E-03   8.15854000E-01
SP   1    1.000000
   4.83456000E-01    1.00000000E+00   1.00000000E+00
SP   1    1.000000
   1.45585000E-01    1.00000000E+00   1.00000000E+00
SP   1    1.000000
   4.38000000E-02    1.00000000E+00   1.00000000E+00
SP   1    1.000000
   1.31927711E-02    1.00000000E+00   1.00000000E+00
D    1    1.000000
   6.26000000E-01    1.00000000E+00
****
$end
--------------------------------------------------------------
 ----------------------------------------------------------------
             Standard Nuclear Orientation (Angstroms)
    I     Atom           X                Y                Z
 ----------------------------------------------------------------
    1      C      -0.1317389006    -1.7920898021    -0.0000000000
    2      H      -2.1496199998    -1.3097873901    -0.0000000000
    3      H      -0.3159955991    -2.8650311520    -0.0000000000
    4      H       0.1440774605     2.0428096324    -0.0000000000
    5      C      -1.1725887630     0.4803086117    -0.0000000000
    6      O      -2.2500820677     1.0683379552    -0.0000000000
    7      C       1.3115835701     0.2830871687     0.0000000000
    8      O       2.3636166765     0.9638934536     0.0000000000
    9      N       0.0701702980     1.0313899680    -0.0000000000
   10      N      -1.1958686845    -0.9498264415    -0.0000000000
   11      C       1.1916515800    -1.1316947256     0.0000000000
   12      H       2.0997050552    -1.7344545620     0.0000000000
 ----------------------------------------------------------------
 Molecular Point Group                 Cs    NOp =  2
 Largest Abelian Subgroup              Cs    NOp =  2
 Nuclear Repulsion Energy =         351.76271865 hartrees
 There are       29 alpha and       29 beta electrons
 Requested basis set is non-standard
 There are 116 shells and 276 basis functions

 Total QAlloc Memory Limit   2000 MB
 Mega-Array Size       188 MB
 MEM_STATIC part       192 MB

                       Distance Matrix (Angstroms)
             C (  1)   H (  2)   H (  3)   H (  4)   C (  5)   O (  6)
   H (  2)  2.074719
   H (  3)  1.088648  2.404363
   H (  4)  3.844805  4.062137  4.929358
   C (  5)  2.499433  2.039371  3.453267  2.043286
   O (  6)  3.559414  2.380246  4.383159  2.584878  1.227506
   C (  7)  2.527754  3.810142  3.543961  2.111799  2.491989  3.647202
   O (  8)  3.717828  5.053606  4.673434  2.467877  3.569118  4.614881
   N (  9)  2.830690  3.226233  3.915510  1.014116  1.359463  2.320547
   N ( 10)  1.357122  1.019418  2.107649  3.278922  1.430325  2.276918
   C ( 11)  1.479015  3.346014  2.297271  3.342886  2.861501  4.084810
   H ( 12)  2.232188  4.270492  2.667173  4.253493  3.951339  5.174582
             C (  7)   O (  8)   N (  9)   N ( 10)   C ( 11)
   O (  8)  1.253104
   N (  9)  1.449505  2.294439
   N ( 10)  2.794171  4.041319  2.351185
   C ( 11)  1.419856  2.401040  2.436525  2.394437
   H ( 12)  2.166012  2.711223  3.430584  3.387691  1.089899

 A cutoff of  1.0D-08 yielded   5044 shell pairs
 There are     33695 function pairs (     35678 Cartesian)
 Smallest overlap matrix eigenvalue = 3.44E-07

 Q-Chem warning in module stvman/mkSTV.C, line 318:

 Overlap eigenvalue is smaller than square root of threshold
 Use THRESH >= 12 to get rid of this warning

 Linear dependence detected in AO basis
 Tighter screening thresholds may be required for diffuse basis sets
 Use S2THRESH > 14 and THRESH = 14 in case of SCF convergence issues
 Number of orthogonalized atomic orbitals = 275
 Maximum deviation from orthogonality = 2.562E-10

 Scale SEOQF with 1.000000e-01/1.000000e-01/1.000000e-01

 Standard Electronic Orientation quadrupole field applied
 Nucleus-field energy     =     0.0000000101 hartrees
 Guess MOs from core Hamiltonian diagonalization

 -----------------------------------------------------------------------
  General SCF calculation program by
  Eric Jon Sundstrom, Paul Horn, Yuezhi Mao, Dmitri Zuev, Alec White,
  David Stuck, Shaama M.S., Shane Yost, Joonho Lee, David Small,
  Daniel Levine, Susi Lehtola, Hugh Burton, Evgeny Epifanovsky
 -----------------------------------------------------------------------
 Hartree-Fock
 using 4 threads for integral computing
 -------------------------------------------------------
 OpenMP Integral computing Module                
 Release: version 2.0, May 2017, Q-Chem Inc. Pleasanton 
 -------------------------------------------------------
 A restricted SCF calculation will be
 performed using DIIS
 SCF converges when DIIS error is below 1.0e-05
 ---------------------------------------
  Cycle       Energy         DIIS error
 ---------------------------------------
    1    -317.7063736553      1.18e-01  
    2    -299.0403056573      6.05e-02  
    3    -298.3813811127      7.95e-02  
    4    -381.0900959058      4.65e-02  
    5    -409.1296436504      1.79e-02  
    6    -410.5568114983      1.45e-02  
    7    -412.4493576448      2.69e-03  
    8    -412.5296466358      1.01e-03  
    9    -412.5425814621      4.06e-04  
   10    -412.5454765458      2.12e-04  
   11    -412.5465195801      7.98e-05  
   12    -412.5466611346      2.45e-05  
   13    -412.5466771241      1.29e-05  
   14    -412.5466797751      5.28e-06  Convergence criterion met
 ---------------------------------------
 SCF time:   CPU 95.69s  wall 25.00s 
 SCF   energy in the final basis set =     -412.5466797751
 Total energy in the final basis set =     -412.5466797751

 --------------------------------------------------------------
             Orbital Energies (a.u.) and Symmetries
 --------------------------------------------------------------

 Alpha MOs, Restricted
 -- Occupied --                  
-20.554 -20.538 -15.662 -15.640 -11.435 -11.393 -11.382 -11.272
  1 A'    2 A'    3 A'    4 A'    5 A'    6 A'    7 A'    8 A'                 
 -1.435  -1.380  -1.312  -1.251  -1.068  -0.949  -0.894  -0.804
  9 A'   10 A'   11 A'   12 A'   13 A'   14 A'   15 A'   16 A'                 
 -0.761  -0.737  -0.676  -0.665  -0.643  -0.615  -0.592  -0.560
 17 A'   18 A'   19 A'    1 A"   20 A'   21 A'   22 A'    2 A"                 
 -0.530  -0.488  -0.447  -0.436  -0.351
  3 A"   23 A'   24 A'    4 A"    5 A"                                         
 -- Virtual --                   
  0.003   0.018   0.019   0.022   0.031   0.033   0.035   0.035
 25 A'   26 A'    6 A"   27 A'   28 A'   29 A'   30 A'    7 A"                 
  0.039   0.044   0.046   0.048   0.051   0.053   0.055   0.055
  8 A"   31 A'   32 A'   33 A'    9 A"   34 A'   35 A'   10 A"                 
  0.066   0.067   0.072   0.073   0.085   0.086   0.089   0.097
 36 A'   37 A'   38 A'   11 A"   12 A"   39 A'   40 A'   41 A'                 
  0.109   0.112   0.117   0.117   0.120   0.127   0.130   0.136
 42 A'   13 A"   14 A"   43 A'   44 A'   45 A'   46 A'   47 A'                 
  0.138   0.141   0.150   0.162   0.164   0.173   0.178   0.189
 48 A'   49 A'   15 A"   50 A'   51 A'   16 A"   52 A'   17 A"                 
  0.196   0.207   0.208   0.230   0.232   0.240   0.242   0.249
 53 A'   54 A'   18 A"   55 A'   56 A'   57 A'   19 A"   58 A'                 
  0.256   0.267   0.272   0.276   0.279   0.283   0.285   0.298
 59 A'   60 A'   61 A'   20 A"   62 A'   21 A"   63 A'   64 A'                 
  0.329   0.330   0.337   0.351   0.379   0.390   0.399   0.406
 22 A"   65 A'   66 A'   67 A'   68 A'   69 A'   70 A'   23 A"                 
  0.407   0.419   0.423   0.435   0.440   0.451   0.464   0.478
 71 A'   72 A'   24 A"   73 A'   74 A'   75 A'   76 A'   77 A'                 
  0.479   0.493   0.517   0.539   0.556   0.605   0.625   0.632
 78 A'   79 A'   80 A'   81 A'   82 A'   83 A'   84 A'   85 A'                 
  0.695   0.735   0.743   0.744   0.770   0.771   0.795   0.818
 86 A'   87 A'   88 A'   25 A"   89 A'   26 A"   27 A"   90 A'                 
  0.826   0.868   0.874   0.931   0.943   0.956   0.968   0.978
 28 A"   91 A'   92 A'   93 A'   94 A'   95 A'   96 A'   97 A'                 
  1.006   1.024   1.037   1.068   1.087   1.092   1.108   1.152
 98 A'   99 A'   29 A"  100 A'   30 A"  101 A'  102 A'  103 A'                 
  1.200   1.234   1.248   1.263   1.283   1.359   1.362   1.389
 31 A"  104 A'   32 A"  105 A'  106 A'  107 A'   33 A"   34 A"                 
  1.402   1.413   1.423   1.457   1.463   1.516   1.518   1.532
 35 A"   36 A"  108 A'  109 A'   37 A"   38 A"  110 A'  111 A'                 
  1.556   1.602   1.704   1.744   1.779   1.798   1.874   1.876
112 A'  113 A'  114 A'  115 A'   39 A"  116 A'  117 A'   40 A"                 
  1.895   1.913   1.926   1.957   1.997   2.005   2.049   2.102
118 A'   41 A"  119 A'  120 A'  121 A'   42 A"  122 A'  123 A'                 
  2.113   2.175   2.204   2.213   2.264   2.271   2.286   2.344
124 A'  125 A'   43 A"  126 A'  127 A'  128 A'   44 A"  129 A'                 
  2.475   2.534   2.571   2.637   2.644   2.705   2.734   2.797
130 A'   45 A"  131 A'  132 A'   46 A"   47 A"  133 A'   48 A"                 
  2.810   2.914   2.935   2.974   3.027   3.051   3.077   3.110
134 A'  135 A'  136 A'  137 A'  138 A'  139 A'   49 A"  140 A'                 
  3.143   3.160   3.173   3.243   3.253   3.287   3.288   3.328
 50 A"  141 A'   51 A"  142 A'   52 A"  143 A'   53 A"  144 A'                 
  3.333   3.335   3.494   3.553   3.708   3.733   3.740   3.753
145 A'   54 A"  146 A'  147 A'  148 A'   55 A"   56 A"  149 A'                 
  3.812   3.867   3.892   3.967   4.018   4.111   4.226   4.294
150 A'  151 A'  152 A'  153 A'  154 A'  155 A'  156 A'   57 A"                 
  4.349   4.397   4.449   4.598   4.986   5.107   5.251   5.406
 58 A"  157 A'  158 A'  159 A'  160 A'  161 A'  162 A'  163 A'                 
  5.514   5.620   5.636   5.640   5.703   5.771   5.810   5.833
164 A'   59 A"   60 A"  165 A'  166 A'  167 A'  168 A'  169 A'                 
  6.423   6.436   7.617   7.699   9.838   9.901  20.615  20.673
170 A'  171 A'  172 A'  173 A'  174 A'  175 A'  176 A'  177 A'                 
 20.691  20.837  30.146  30.213  40.859  40.910  80.169  80.210
178 A'  179 A'  180 A'  181 A'  182 A'  183 A'  184 A'  185 A'                 
 80.233  80.370 116.272 116.329 159.212 159.253 321.996 322.029
186 A'  187 A'  188 A'  189 A'  190 A'  191 A'  192 A'  193 A'                 
322.052 322.181 460.376 460.427 631.916 631.9491431.5501431.582
194 A'  195 A'  196 A'  197 A'  198 A'  199 A'  200 A'  201 A'                 
*******1431.7242012.8532012.9002759.3152759.3448749.7708749.806
202 A'  203 A'  204 A'  205 A'  206 A'  207 A'  208 A'  209 A'                 
*******8749.936********************************
210 A'  211 A'  212 A'  213 A'  214 A'  215 A'                                 

 Beta MOs, Restricted
 -- Occupied --                  
-20.554 -20.538 -15.662 -15.640 -11.435 -11.393 -11.382 -11.272
  1 A'    2 A'    3 A'    4 A'    5 A'    6 A'    7 A'    8 A'                 
 -1.435  -1.380  -1.312  -1.251  -1.068  -0.949  -0.894  -0.804
  9 A'   10 A'   11 A'   12 A'   13 A'   14 A'   15 A'   16 A'                 
 -0.761  -0.737  -0.676  -0.665  -0.643  -0.615  -0.592  -0.560
 17 A'   18 A'   19 A'    1 A"   20 A'   21 A'   22 A'    2 A"                 
 -0.530  -0.488  -0.447  -0.436  -0.351
  3 A"   23 A'   24 A'    4 A"    5 A"                                         
 -- Virtual --                   
  0.003   0.018   0.019   0.022   0.031   0.033   0.035   0.035
 25 A'   26 A'    6 A"   27 A'   28 A'   29 A'   30 A'    7 A"                 
  0.039   0.044   0.046   0.048   0.051   0.053   0.055   0.055
  8 A"   31 A'   32 A'   33 A'    9 A"   34 A'   35 A'   10 A"                 
  0.066   0.067   0.072   0.073   0.085   0.086   0.089   0.097
 36 A'   37 A'   38 A'   11 A"   12 A"   39 A'   40 A'   41 A'                 
  0.109   0.112   0.117   0.117   0.120   0.127   0.130   0.136
 42 A'   13 A"   14 A"   43 A'   44 A'   45 A'   46 A'   47 A'                 
  0.138   0.141   0.150   0.162   0.164   0.173   0.178   0.189
 48 A'   49 A'   15 A"   50 A'   51 A'   16 A"   52 A'   17 A"                 
  0.196   0.207   0.208   0.230   0.232   0.240   0.242   0.249
 53 A'   54 A'   18 A"   55 A'   56 A'   57 A'   19 A"   58 A'                 
  0.256   0.267   0.272   0.276   0.279   0.283   0.285   0.298
 59 A'   60 A'   61 A'   20 A"   62 A'   21 A"   63 A'   64 A'                 
  0.329   0.330   0.337   0.351   0.379   0.390   0.399   0.406
 22 A"   65 A'   66 A'   67 A'   68 A'   69 A'   70 A'   23 A"                 
  0.407   0.419   0.423   0.435   0.440   0.451   0.464   0.478
 71 A'   72 A'   24 A"   73 A'   74 A'   75 A'   76 A'   77 A'                 
  0.479   0.493   0.517   0.539   0.556   0.605   0.625   0.632
 78 A'   79 A'   80 A'   81 A'   82 A'   83 A'   84 A'   85 A'                 
  0.695   0.735   0.743   0.744   0.770   0.771   0.795   0.818
 86 A'   87 A'   88 A'   25 A"   89 A'   26 A"   27 A"   90 A'                 
  0.826   0.868   0.874   0.931   0.943   0.956   0.968   0.978
 28 A"   91 A'   92 A'   93 A'   94 A'   95 A'   96 A'   97 A'                 
  1.006   1.024   1.037   1.068   1.087   1.092   1.108   1.152
 98 A'   99 A'   29 A"  100 A'   30 A"  101 A'  102 A'  103 A'                 
  1.200   1.234   1.248   1.263   1.283   1.359   1.362   1.389
 31 A"  104 A'   32 A"  105 A'  106 A'  107 A'   33 A"   34 A"                 
  1.402   1.413   1.423   1.457   1.463   1.516   1.518   1.532
 35 A"   36 A"  108 A'  109 A'   37 A"   38 A"  110 A'  111 A'                 
  1.556   1.602   1.704   1.744   1.779   1.798   1.874   1.876
112 A'  113 A'  114 A'  115 A'   39 A"  116 A'  117 A'   40 A"                 
  1.895   1.913   1.926   1.957   1.997   2.005   2.049   2.102
118 A'   41 A"  119 A'  120 A'  121 A'   42 A"  122 A'  123 A'                 
  2.113   2.175   2.204   2.213   2.264   2.271   2.286   2.344
124 A'  125 A'   43 A"  126 A'  127 A'  128 A'   44 A"  129 A'                 
  2.475   2.534   2.571   2.637   2.644   2.705   2.734   2.797
130 A'   45 A"  131 A'  132 A'   46 A"   47 A"  133 A'   48 A"                 
  2.810   2.914   2.935   2.974   3.027   3.051   3.077   3.110
134 A'  135 A'  136 A'  137 A'  138 A'  139 A'   49 A"  140 A'                 
  3.143   3.160   3.173   3.243   3.253   3.287   3.288   3.328
 50 A"  141 A'   51 A"  142 A'   52 A"  143 A'   53 A"  144 A'                 
  3.333   3.335   3.494   3.553   3.708   3.733   3.740   3.753
145 A'   54 A"  146 A'  147 A'  148 A'   55 A"   56 A"  149 A'                 
  3.812   3.867   3.892   3.967   4.018   4.111   4.226   4.294
150 A'  151 A'  152 A'  153 A'  154 A'  155 A'  156 A'   57 A"                 
  4.349   4.397   4.449   4.598   4.986   5.107   5.251   5.406
 58 A"  157 A'  158 A'  159 A'  160 A'  161 A'  162 A'  163 A'                 
  5.514   5.620   5.636   5.640   5.703   5.771   5.810   5.833
164 A'   59 A"   60 A"  165 A'  166 A'  167 A'  168 A'  169 A'                 
  6.423   6.436   7.617   7.699   9.838   9.901  20.615  20.673
170 A'  171 A'  172 A'  173 A'  174 A'  175 A'  176 A'  177 A'                 
 20.691  20.837  30.146  30.213  40.859  40.910  80.169  80.210
178 A'  179 A'  180 A'  181 A'  182 A'  183 A'  184 A'  185 A'                 
 80.233  80.370 116.272 116.329 159.212 159.253 321.996 322.029
186 A'  187 A'  188 A'  189 A'  190 A'  191 A'  192 A'  193 A'                 
322.052 322.181 460.376 460.427 631.916 631.9491431.5501431.582
194 A'  195 A'  196 A'  197 A'  198 A'  199 A'  200 A'  201 A'                 
*******1431.7242012.8532012.9002759.3152759.3448749.7708749.806
202 A'  203 A'  204 A'  205 A'  206 A'  207 A'  208 A'  209 A'                 
*******8749.936********************************
210 A'  211 A'  212 A'  213 A'  214 A'  215 A'                                 
 --------------------------------------------------------------

          Ground-State Mulliken Net Atomic Charges

     Atom                 Charge (a.u.)
  ----------------------------------------
      1 C                    -0.006652
      2 H                     0.356880
      3 H                     0.180329
      4 H                     0.397263
      5 C                     0.202442
      6 O                    -0.070416
      7 C                    -0.032664
      8 O                    -0.152650
      9 N                    -0.533087
     10 N                    -0.348983
     11 C                    -0.243226
     12 H                     0.250764
  ----------------------------------------
  Sum of atomic charges =     0.000000

 -----------------------------------------------------------------
                    Cartesian Multipole Moments
 -----------------------------------------------------------------
    Charge (ESU x 10^10)
                 0.0000
    Dipole Moment (Debye)
         X      -2.1638      Y      -5.2361      Z      -0.0000
       Tot       5.6656
    Quadrupole Moments (Debye-Ang)
        XX     -62.1442     XY       3.2987     YY     -37.0041
        XZ       0.0000     YZ      -0.0000     ZZ     -47.6457
    Octopole Moments (Debye-Ang^2)
       XXX     -17.7605    XXY     -35.3949    XYY      -5.5732
       YYY     -11.7415    XXZ      -0.0000    XYZ       0.0000
       YYZ      -0.0000    XZZ      -2.7622    YZZ       4.7208
       ZZZ      -0.0000
    Hexadecapole Moments (Debye-Ang^3)
      XXXX    -747.8520   XXXY      12.3701   XXYY    -184.1192
      XYYY      19.5542   YYYY    -303.9117   XXXZ       0.0000
      XXYZ      -0.0000   XYYZ       0.0000   YYYZ      -0.0000
      XXZZ    -117.8707   XYZZ       3.4028   YYZZ     -79.5712
      XZZZ       0.0000   YZZZ      -0.0000   ZZZZ     -48.9526
 -----------------------------------------------------------------
Archival summary:
1\1\n-62-23-25\SP\HF\BasisUnspecified\2244\malop\WedJun1218:21:422019WedJun1218:21:422019\0\\#,HF,BasisUnspecified,\\0,1\N\H,1,1.01412\C,1,1.35946,2,118.093\O,3,1.22751,1,127.463,2,-0,0\N,3,1.43032,1,114.847,2,-180,0\H,5,1.01942,3,111.61,1,180,0\C,5,1.35712,3,127.429,1,-0,0\H,7,1.08865,5,118.617,3,-180,0\C,1,1.4495,2,116.902,3,-180,0\O,9,1.2531,1,116.011,2,0,0\C,9,1.41986,1,116.235,2,-180,0\H,11,1.0899,9,118.731,1,180,0\\HF=-412.54668\\@

 Total job time:  26.40s(wall), 96.06s(cpu) 
 Wed Jun 12 18:21:42 2019

        *************************************************************
        *                                                           *
        *  Thank you very much for using Q-Chem.  Have a nice day.  *
        *                                                           *
        *************************************************************


 
User input: 2 of 2 
 
                  Welcome to Q-Chem
     A Quantum Leap Into The Future Of Chemistry


 Q-Chem 5.2 (devel), Q-Chem, Inc., Pleasanton, CA (2019)

 Yihan Shao,  Zhengting Gan,  E. Epifanovsky,  A. T. B. Gilbert,  M. Wormit,  
 J. Kussmann,  A. W. Lange,  A. Behn,  Jia Deng,  Xintian Feng,  D. Ghosh,  
 M. Goldey,  P. R. Horn,  L. D. Jacobson,  I. Kaliman,  T. Kus,  A. Landau,  
 Jie Liu,  E. I. Proynov,  R. M. Richard,  R. P. Steele,  E. J. Sundstrom,  
 H. L. Woodcock III,  P. M. Zimmerman,  D. Zuev,  B. Albrecht,  E. Alguire,  
 S. A. Baeppler,  D. Barton,  Z. Benda,  Y. A. Bernard,  E. J. Berquist,  
 K. B. Bravaya,  H. Burton,  D. Casanova,  Chun-Min Chang,  Yunqing Chen,  
 A. Chien,  K. D. Closser,  M. P. Coons,  S. Coriani,  S. Dasgupta,  
 A. L. Dempwolff,  M. Diedenhofen,  Hainam Do,  R. G. Edgar,  Po-Tung Fang,  
 S. Faraji,  S. Fatehi,  Qingguo Feng,  K. D. Fenk,  J. Fosso-Tande,  
 J. Gayvert,  Qinghui Ge,  A. Ghysels,  G. Gidofalvi,  J. Gomes,  
 J. Gonthier,  A. Gunina,  D. Hait,  M. W. D. Hanson-Heine,  
 P. H. P. Harbach,  A. W. Hauser,  M. F. Herbst,  J. E. Herr,  
 E. G. Hohenstein,  Z. C. Holden,  Kerwin Hui,  B. C. Huynh,  T.-C. Jagau,  
 Hyunjun Ji,  B. Kaduk,  K. Khistyaev,  Jaehoon Kim,  P. Klunzinger,  K. Koh,  
 D. Kosenkov,  L. Koulias,  T. Kowalczyk,  C. M. Krauter,  A. Kunitsa,  
 Ka Un Lao,  A. Laurent,  K. V. Lawler,  Joonho Lee,  D. Lefrancois,  
 S. Lehtola,  D. S. Levine,  Yi-Pei Li,  You-Sheng Lin,  Fenglai Liu,  
 E. Livshits,  A. Luenser,  P. Manohar,  E. Mansoor,  S. F. Manzer,  
 Shan-Ping Mao,  Yuezhi Mao,  N. Mardirossian,  A. V. Marenich,  
 T. Markovich,  L. A. Martinez-Martinez,  S. A. Maurer,  N. J. Mayhall,  
 S. C. McKenzie,  J.-M. Mewes,  P. Morgante,  A. F. Morrison,  
 J. W. Mullinax,  K. Nanda,  T. S. Nguyen-Beck,  R. Olivares-Amaya,  
 J. A. Parkhill,  Zheng Pei,  T. M. Perrine,  F. Plasser,  P. Pokhilko,  
 S. Prager,  A. Prociuk,  E. Ramos,  D. R. Rehn,  F. Rob,  M. Scheurer,  
 M. Schneider,  N. Sergueev,  S. M. Sharada,  S. Sharma,  D. W. Small,  
 T. Stauch,  T. Stein,  Yu-Chuan Su,  A. J. W. Thom,  A. Tkatchenko,  
 T. Tsuchimochi,  N. M. Tubman,  L. Vogt,  M. L. Vidal,  O. Vydrov,  
 M. A. Watson,  J. Wenzel,  M. de Wergifosse,  T. A. Wesolowski,  A. White,  
 J. Witte,  A. Yamada,  Jun Yang,  K. Yao,  S. Yeganeh,  S. R. Yost,  
 Zhi-Qiang You,  A. Zech,  Igor Ying Zhang,  Xing Zhang,  Yan Zhao,  
 Ying Zhu,  B. R. Brooks,  G. K. L. Chan,  C. J. Cramer,  M. S. Gordon,  
 W. J. Hehre,  A. Klamt,  M. W. Schmidt,  C. D. Sherrill,  D. G. Truhlar,  
 A. Aspuru-Guzik,  R. Baer,  A. T. Bell,  N. A. Besley,  Jeng-Da Chai,  
 A. E. DePrince, III,  R. A. DiStasio Jr.,  A. Dreuw,  B. D. Dunietz,  
 T. R. Furlani,  Chao-Ping Hsu,  Yousung Jung,  Jing Kong,  D. S. Lambrecht,  
 WanZhen Liang,  C. Ochsenfeld,  V. A. Rassolov,  L. V. Slipchenko,  
 J. E. Subotnik,  T. Van Voorhis,  J. M. Herbert,  A. I. Krylov,  
 P. M. W. Gill,  M. Head-Gordon

 Contributors to earlier versions of Q-Chem not listed above: 
 R. D. Adamson,  B. Austin,  J. Baker,  G. J. O. Beran,  K. Brandhorst,  
 S. T. Brown,  E. F. C. Byrd,  A. K. Chakraborty,  C.-L. Cheng,  
 Siu Hung Chien,  D. M. Chipman,  D. L. Crittenden,  H. Dachsel,  
 R. J. Doerksen,  A. D. Dutoi,  L. Fusti-Molnar,  W. A. Goddard III,  
 A. Golubeva-Zadorozhnaya,  S. R. Gwaltney,  G. Hawkins,  A. Heyden,  
 S. Hirata,  G. Kedziora,  F. J. Keil,  C. Kelley,  Jihan Kim,  R. A. King,  
 R. Z. Khaliullin,  P. P. Korambath,  W. Kurlancheek,  A. M. Lee,  M. S. Lee,  
 S. V. Levchenko,  Ching Yeh Lin,  D. Liotard,  R. C. Lochan,  I. Lotan,  
 P. E. Maslen,  N. Nair,  D. P. O'Neill,  D. Neuhauser,  E. Neuscamman,  
 C. M. Oana,  R. Olson,  B. Peters,  R. Peverati,  P. A. Pieniazek,  
 Y. M. Rhee,  J. Ritchie,  M. A. Rohrdanz,  E. Rosta,  N. J. Russ,  
 H. F. Schaefer III,  N. E. Schultz,  N. Shenvi,  A. C. Simmonett,  A. Sodt,  
 D. Stuck,  K. S. Thanthiriwatte,  V. Vanovschi,  Tao Wang,  A. Warshel,  
 C. F. Williams,  Q. Wu,  X. Xu,  W. Zhang

 Please cite Q-Chem as follows:
 Y. Shao et al., Mol. Phys. 113, 184-215 (2015)
 DOI: 10.1080/00268976.2014.952696

 Q-Chem 5.2.0 for Intel X86 EM64T Linux

 Parts of Q-Chem use Armadillo 8.300.2 (Tropical Shenanigans).
 http://arma.sourceforge.net/

 Q-Chem begins on Wed Jun 12 18:21:43 2019  

n-62-23-25
Host: 0

     Scratch files written to /work1/malop/qc_8407505.hnode2/qchem7448//
NAlpha2: 60
NElect   58
Mult     3

Checking the input file for inconsistencies... 	...done.

--------------------------------------------------------------
User input:
--------------------------------------------------------------

$molecule
0 3
C        -0.0581949473   -1.7976206857    0.0000000000
H        -2.0937197909   -1.3962500862    0.0000000000
H        -0.1994763750   -2.8770618511    0.0000000000
H         0.0643245546    2.0452320710    0.0000000000
C        -1.1889222032    0.4314192107    0.0000000000
O        -2.2890290202    0.9759697793    0.0000000000
C         1.3011427138    0.3335152409    0.0000000000
O         2.3251617259    1.0557727555    0.0000000000
N         0.0308489641    1.0316683625    0.0000000000
N        -1.1550971105   -0.9985052937    0.0000000000
C         1.2377799195   -1.0849263853    0.0000000000
H         2.1691699442   -1.6509592078    0.0000000000
$end

$rem
   JOB_TYPE  =  SP
   BASIS  = general
   print_general_basis = true
   SCF_GUESS read
   mom_start = 1
   METHOD  =  EOM-CCSD
   CVS_IP_STATES = [4,0]
   !eom_davidson_convergence = 4
   cvs_eom_shift = 10500
   n_frozen_core = fc
   cc_trans_prop = true
   cc_memory = 40000
   cc_do_dyson = true
   MOLDEN_FORMAT = TRUE
$end

$basis
H    0
6-311(2+,+)G**
****
O    0
S    1    1.000000
   8.58850000E+03    1.89515000E-03
S    1    1.000000
   1.29723000E+03    1.43859000E-02
S    1    1.000000
   2.99296000E+02    7.07320000E-02
S    1    1.000000
   8.73771000E+01    2.40001000E-01
S    1    1.000000
   2.56789000E+01    5.94797000E-01
S    1    1.000000
   3.74004000E+00    2.80802000E-01
SP   3    1.000000
   4.21175000E+01    1.13889000E-01   3.65114000E-02
   9.62837000E+00    9.20811000E-01   2.37153000E-01
   2.85332000E+00   -3.27447000E-03   8.19702000E-01
SP   1    1.000000
   9.05661000E-01    1.00000000E+00   1.00000000E+00
SP   1    1.000000
   2.55611000E-01    1.00000000E+00   1.00000000E+00
SP   1    1.000000
   8.45000000E-02    1.00000000E+00   1.00000000E+00
SP   1    1.000000
   2.54518072E-02    1.00000000E+00   1.00000000E+00
D    1    1.000000
   1.29200000E+00    1.00000000E+00
****
N    0
S    1    1.000000
   6.29348000E+03    1.96979000E-03
S    1    1.000000
   9.49044000E+02    1.49613000E-02
S    1    1.000000
   2.18776000E+02    7.35006000E-02
S    1    1.000000
   6.36916000E+01    2.48937000E-01
S    1    1.000000
   1.88282000E+01    6.02460000E-01
S    1    1.000000
   2.72023000E+00    2.56202000E-01
SP   3    1.000000
   3.06331000E+01    1.11906000E-01   3.83119000E-02
   7.02614000E+00    9.21666000E-01   2.37403000E-01
   2.11205000E+00   -2.56919000E-03   8.17592000E-01
SP   1    1.000000
   6.84009000E-01    1.00000000E+00   1.00000000E+00
SP   1    1.000000
   2.00878000E-01    1.00000000E+00   1.00000000E+00
SP   1    1.000000
   6.39000000E-02    1.00000000E+00   1.00000000E+00
SP   1    1.000000
   1.92469880E-02    1.00000000E+00   1.00000000E+00
D    1    1.000000
   9.13000000E-01    1.00000000E+00
****
C    0
S    1    1.000000
   4.56324000E+03    1.96665000E-03
S    1    1.000000
   6.82024000E+02    1.52306000E-02
S    1    1.000000
   1.54973000E+02    7.61269000E-02
S    1    1.000000
   4.44553000E+01    2.60801000E-01
S    1    1.000000
   1.30290000E+01    6.16462000E-01
S    1    1.000000
   1.82773000E+00    2.21006000E-01
SP   3    1.000000
   2.09642000E+01    1.14660000E-01   4.02487000E-02
   4.80331000E+00    9.19999000E-01   2.37594000E-01
   1.45933000E+00   -3.03068000E-03   8.15854000E-01
SP   1    1.000000
   4.83456000E-01    1.00000000E+00   1.00000000E+00
SP   1    1.000000
   1.45585000E-01    1.00000000E+00   1.00000000E+00
SP   1    1.000000
   4.38000000E-02    1.00000000E+00   1.00000000E+00
SP   1    1.000000
   1.31927711E-02    1.00000000E+00   1.00000000E+00
D    1    1.000000
   6.26000000E-01    1.00000000E+00
****
$end
--------------------------------------------------------------
 ----------------------------------------------------------------
             Standard Nuclear Orientation (Angstroms)
    I     Atom           X                Y                Z
 ----------------------------------------------------------------
    1      C      -0.1317389006    -1.7920898021    -0.0000000000
    2      H      -2.1496199998    -1.3097873901    -0.0000000000
    3      H      -0.3159955991    -2.8650311520    -0.0000000000
    4      H       0.1440774605     2.0428096324    -0.0000000000
    5      C      -1.1725887630     0.4803086117    -0.0000000000
    6      O      -2.2500820677     1.0683379552    -0.0000000000
    7      C       1.3115835701     0.2830871687     0.0000000000
    8      O       2.3636166765     0.9638934536     0.0000000000
    9      N       0.0701702980     1.0313899680    -0.0000000000
   10      N      -1.1958686845    -0.9498264415    -0.0000000000
   11      C       1.1916515800    -1.1316947256     0.0000000000
   12      H       2.0997050552    -1.7344545620     0.0000000000
 ----------------------------------------------------------------
 Molecular Point Group                 Cs    NOp =  2
 Largest Abelian Subgroup              Cs    NOp =  2
 Nuclear Repulsion Energy =         351.76271865 hartrees
 There are       30 alpha and       28 beta electrons
 Requested basis set is non-standard
Basis set in general basis input format:
-----------------------------------------------------------------------
$basis
C    0
S    1    1.000000
   4.56324000E+03    1.96665000E-03 
S    1    1.000000
   6.82024000E+02    1.52306000E-02 
S    1    1.000000
   1.54973000E+02    7.61269000E-02 
S    1    1.000000
   4.44553000E+01    2.60801000E-01 
S    1    1.000000
   1.30290000E+01    6.16462000E-01 
S    1    1.000000
   1.82773000E+00    2.21006000E-01 
SP   3    1.000000
   2.09642000E+01    1.14660000E-01   4.02487000E-02 
   4.80331000E+00    9.19999000E-01   2.37594000E-01 
   1.45933000E+00   -3.03068000E-03   8.15854000E-01 
SP   1    1.000000
   4.83456000E-01    1.00000000E+00   1.00000000E+00 
SP   1    1.000000
   1.45585000E-01    1.00000000E+00   1.00000000E+00 
SP   1    1.000000
   4.38000000E-02    1.00000000E+00   1.00000000E+00 
SP   1    1.000000
   1.31927711E-02    1.00000000E+00   1.00000000E+00 
D    1    1.000000
   6.26000000E-01    1.00000000E+00 
****
H    0
S    3    1.000000
   3.38650000E+01    2.54938000E-02 
   5.09479000E+00    1.90373000E-01 
   1.15879000E+00    8.52161000E-01 
S    1    1.000000
   3.25840000E-01    1.00000000E+00 
S    1    1.000000
   1.02741000E-01    1.00000000E+00 
S    1    1.000000
   3.60000000E-02    1.00000000E+00 
P    1    1.000000
   7.50000000E-01    1.00000000E+00 
****
H    0
S    3    1.000000
   3.38650000E+01    2.54938000E-02 
   5.09479000E+00    1.90373000E-01 
   1.15879000E+00    8.52161000E-01 
S    1    1.000000
   3.25840000E-01    1.00000000E+00 
S    1    1.000000
   1.02741000E-01    1.00000000E+00 
S    1    1.000000
   3.60000000E-02    1.00000000E+00 
P    1    1.000000
   7.50000000E-01    1.00000000E+00 
****
H    0
S    3    1.000000
   3.38650000E+01    2.54938000E-02 
   5.09479000E+00    1.90373000E-01 
   1.15879000E+00    8.52161000E-01 
S    1    1.000000
   3.25840000E-01    1.00000000E+00 
S    1    1.000000
   1.02741000E-01    1.00000000E+00 
S    1    1.000000
   3.60000000E-02    1.00000000E+00 
P    1    1.000000
   7.50000000E-01    1.00000000E+00 
****
C    0
S    1    1.000000
   4.56324000E+03    1.96665000E-03 
S    1    1.000000
   6.82024000E+02    1.52306000E-02 
S    1    1.000000
   1.54973000E+02    7.61269000E-02 
S    1    1.000000
   4.44553000E+01    2.60801000E-01 
S    1    1.000000
   1.30290000E+01    6.16462000E-01 
S    1    1.000000
   1.82773000E+00    2.21006000E-01 
SP   3    1.000000
   2.09642000E+01    1.14660000E-01   4.02487000E-02 
   4.80331000E+00    9.19999000E-01   2.37594000E-01 
   1.45933000E+00   -3.03068000E-03   8.15854000E-01 
SP   1    1.000000
   4.83456000E-01    1.00000000E+00   1.00000000E+00 
SP   1    1.000000
   1.45585000E-01    1.00000000E+00   1.00000000E+00 
SP   1    1.000000
   4.38000000E-02    1.00000000E+00   1.00000000E+00 
SP   1    1.000000
   1.31927711E-02    1.00000000E+00   1.00000000E+00 
D    1    1.000000
   6.26000000E-01    1.00000000E+00 
****
O    0
S    1    1.000000
   8.58850000E+03    1.89515000E-03 
S    1    1.000000
   1.29723000E+03    1.43859000E-02 
S    1    1.000000
   2.99296000E+02    7.07320000E-02 
S    1    1.000000
   8.73771000E+01    2.40001000E-01 
S    1    1.000000
   2.56789000E+01    5.94797000E-01 
S    1    1.000000
   3.74004000E+00    2.80802000E-01 
SP   3    1.000000
   4.21175000E+01    1.13889000E-01   3.65114000E-02 
   9.62837000E+00    9.20811000E-01   2.37153000E-01 
   2.85332000E+00   -3.27447000E-03   8.19702000E-01 
SP   1    1.000000
   9.05661000E-01    1.00000000E+00   1.00000000E+00 
SP   1    1.000000
   2.55611000E-01    1.00000000E+00   1.00000000E+00 
SP   1    1.000000
   8.45000000E-02    1.00000000E+00   1.00000000E+00 
SP   1    1.000000
   2.54518072E-02    1.00000000E+00   1.00000000E+00 
D    1    1.000000
   1.29200000E+00    1.00000000E+00 
****
C    0
S    1    1.000000
   4.56324000E+03    1.96665000E-03 
S    1    1.000000
   6.82024000E+02    1.52306000E-02 
S    1    1.000000
   1.54973000E+02    7.61269000E-02 
S    1    1.000000
   4.44553000E+01    2.60801000E-01 
S    1    1.000000
   1.30290000E+01    6.16462000E-01 
S    1    1.000000
   1.82773000E+00    2.21006000E-01 
SP   3    1.000000
   2.09642000E+01    1.14660000E-01   4.02487000E-02 
   4.80331000E+00    9.19999000E-01   2.37594000E-01 
   1.45933000E+00   -3.03068000E-03   8.15854000E-01 
SP   1    1.000000
   4.83456000E-01    1.00000000E+00   1.00000000E+00 
SP   1    1.000000
   1.45585000E-01    1.00000000E+00   1.00000000E+00 
SP   1    1.000000
   4.38000000E-02    1.00000000E+00   1.00000000E+00 
SP   1    1.000000
   1.31927711E-02    1.00000000E+00   1.00000000E+00 
D    1    1.000000
   6.26000000E-01    1.00000000E+00 
****
O    0
S    1    1.000000
   8.58850000E+03    1.89515000E-03 
S    1    1.000000
   1.29723000E+03    1.43859000E-02 
S    1    1.000000
   2.99296000E+02    7.07320000E-02 
S    1    1.000000
   8.73771000E+01    2.40001000E-01 
S    1    1.000000
   2.56789000E+01    5.94797000E-01 
S    1    1.000000
   3.74004000E+00    2.80802000E-01 
SP   3    1.000000
   4.21175000E+01    1.13889000E-01   3.65114000E-02 
   9.62837000E+00    9.20811000E-01   2.37153000E-01 
   2.85332000E+00   -3.27447000E-03   8.19702000E-01 
SP   1    1.000000
   9.05661000E-01    1.00000000E+00   1.00000000E+00 
SP   1    1.000000
   2.55611000E-01    1.00000000E+00   1.00000000E+00 
SP   1    1.000000
   8.45000000E-02    1.00000000E+00   1.00000000E+00 
SP   1    1.000000
   2.54518072E-02    1.00000000E+00   1.00000000E+00 
D    1    1.000000
   1.29200000E+00    1.00000000E+00 
****
N    0
S    1    1.000000
   6.29348000E+03    1.96979000E-03 
S    1    1.000000
   9.49044000E+02    1.49613000E-02 
S    1    1.000000
   2.18776000E+02    7.35006000E-02 
S    1    1.000000
   6.36916000E+01    2.48937000E-01 
S    1    1.000000
   1.88282000E+01    6.02460000E-01 
S    1    1.000000
   2.72023000E+00    2.56202000E-01 
SP   3    1.000000
   3.06331000E+01    1.11906000E-01   3.83119000E-02 
   7.02614000E+00    9.21666000E-01   2.37403000E-01 
   2.11205000E+00   -2.56919000E-03   8.17592000E-01 
SP   1    1.000000
   6.84009000E-01    1.00000000E+00   1.00000000E+00 
SP   1    1.000000
   2.00878000E-01    1.00000000E+00   1.00000000E+00 
SP   1    1.000000
   6.39000000E-02    1.00000000E+00   1.00000000E+00 
SP   1    1.000000
   1.92469880E-02    1.00000000E+00   1.00000000E+00 
D    1    1.000000
   9.13000000E-01    1.00000000E+00 
****
N    0
S    1    1.000000
   6.29348000E+03    1.96979000E-03 
S    1    1.000000
   9.49044000E+02    1.49613000E-02 
S    1    1.000000
   2.18776000E+02    7.35006000E-02 
S    1    1.000000
   6.36916000E+01    2.48937000E-01 
S    1    1.000000
   1.88282000E+01    6.02460000E-01 
S    1    1.000000
   2.72023000E+00    2.56202000E-01 
SP   3    1.000000
   3.06331000E+01    1.11906000E-01   3.83119000E-02 
   7.02614000E+00    9.21666000E-01   2.37403000E-01 
   2.11205000E+00   -2.56919000E-03   8.17592000E-01 
SP   1    1.000000
   6.84009000E-01    1.00000000E+00   1.00000000E+00 
SP   1    1.000000
   2.00878000E-01    1.00000000E+00   1.00000000E+00 
SP   1    1.000000
   6.39000000E-02    1.00000000E+00   1.00000000E+00 
SP   1    1.000000
   1.92469880E-02    1.00000000E+00   1.00000000E+00 
D    1    1.000000
   9.13000000E-01    1.00000000E+00 
****
C    0
S    1    1.000000
   4.56324000E+03    1.96665000E-03 
S    1    1.000000
   6.82024000E+02    1.52306000E-02 
S    1    1.000000
   1.54973000E+02    7.61269000E-02 
S    1    1.000000
   4.44553000E+01    2.60801000E-01 
S    1    1.000000
   1.30290000E+01    6.16462000E-01 
S    1    1.000000
   1.82773000E+00    2.21006000E-01 
SP   3    1.000000
   2.09642000E+01    1.14660000E-01   4.02487000E-02 
   4.80331000E+00    9.19999000E-01   2.37594000E-01 
   1.45933000E+00   -3.03068000E-03   8.15854000E-01 
SP   1    1.000000
   4.83456000E-01    1.00000000E+00   1.00000000E+00 
SP   1    1.000000
   1.45585000E-01    1.00000000E+00   1.00000000E+00 
SP   1    1.000000
   4.38000000E-02    1.00000000E+00   1.00000000E+00 
SP   1    1.000000
   1.31927711E-02    1.00000000E+00   1.00000000E+00 
D    1    1.000000
   6.26000000E-01    1.00000000E+00 
****
H    0
S    3    1.000000
   3.38650000E+01    2.54938000E-02 
   5.09479000E+00    1.90373000E-01 
   1.15879000E+00    8.52161000E-01 
S    1    1.000000
   3.25840000E-01    1.00000000E+00 
S    1    1.000000
   1.02741000E-01    1.00000000E+00 
S    1    1.000000
   3.60000000E-02    1.00000000E+00 
P    1    1.000000
   7.50000000E-01    1.00000000E+00 
****
$end
-----------------------------------------------------------------------
 There are 116 shells and 276 basis functions
 WARNING: the default MEM_TOTAL is adjusted according to given MEM_STATIC!
 Total memory of 40192 MB is distributed as follows: 
   MEM_STATIC is set to 192 MB
   QALLOC/CCMAN JOB total memory use is  40000 MB
 Warning: actual memory use might exceed 40192 MB

 Total QAlloc Memory Limit  40192 MB
 Mega-Array Size       188 MB
 MEM_STATIC part       192 MB

                       Distance Matrix (Angstroms)
             C (  1)   H (  2)   H (  3)   H (  4)   C (  5)   O (  6)
   H (  2)  2.074719
   H (  3)  1.088648  2.404363
   H (  4)  3.844805  4.062137  4.929358
   C (  5)  2.499433  2.039371  3.453267  2.043286
   O (  6)  3.559414  2.380246  4.383159  2.584878  1.227506
   C (  7)  2.527754  3.810142  3.543961  2.111799  2.491989  3.647202
   O (  8)  3.717828  5.053606  4.673434  2.467877  3.569118  4.614881
   N (  9)  2.830690  3.226233  3.915510  1.014116  1.359463  2.320547
   N ( 10)  1.357122  1.019418  2.107649  3.278922  1.430325  2.276918
   C ( 11)  1.479015  3.346014  2.297271  3.342886  2.861501  4.084810
   H ( 12)  2.232188  4.270492  2.667173  4.253493  3.951339  5.174582
             C (  7)   O (  8)   N (  9)   N ( 10)   C ( 11)
   O (  8)  1.253104
   N (  9)  1.449505  2.294439
   N ( 10)  2.794171  4.041319  2.351185
   C ( 11)  1.419856  2.401040  2.436525  2.394437
   H ( 12)  2.166012  2.711223  3.430584  3.387691  1.089899

 A cutoff of  1.0D-14 yielded   5420 shell pairs
 There are     35693 function pairs (     37863 Cartesian)
 Smallest overlap matrix eigenvalue = 3.44E-07
 Linear dependence detected in AO basis
 Tighter screening thresholds may be required for diffuse basis sets
 Use S2THRESH > 14 and THRESH = 14 in case of SCF convergence issues
 Number of orthogonalized atomic orbitals = 275
 Maximum deviation from orthogonality = 2.562E-10

 Scale SEOQF with 1.000000e-01/1.000000e-01/1.000000e-01

 Standard Electronic Orientation quadrupole field applied
 Nucleus-field energy     =     0.0000000101 hartrees
 Guess MOs from SCF MO coefficient file

 -----------------------------------------------------------------------
  General SCF calculation program by
  Eric Jon Sundstrom, Paul Horn, Yuezhi Mao, Dmitri Zuev, Alec White,
  David Stuck, Shaama M.S., Shane Yost, Joonho Lee, David Small,
  Daniel Levine, Susi Lehtola, Hugh Burton, Evgeny Epifanovsky
 -----------------------------------------------------------------------
 Hartree-Fock
 using 4 threads for integral computing
 -------------------------------------------------------
 OpenMP Integral computing Module                
 Release: version 2.0, May 2017, Q-Chem Inc. Pleasanton 
 -------------------------------------------------------
 A unrestricted SCF calculation will be
 performed using DIIS
 SCF converges when DIIS error is below 1.0e-08
 ---------------------------------------
  Cycle       Energy         DIIS error
 ---------------------------------------
Maximum Overlap Method Active
 MOM overlap:    29.9 / 30
Maximum Overlap Method Active
 MOM overlap:    28.0 / 28
    1    -412.2846968525      8.88e-04  
Maximum Overlap Method Active
 MOM overlap:    29.99 / 30
Maximum Overlap Method Active
 MOM overlap:    28.00 / 28
    2    -412.3418076640      4.60e-04  
Maximum Overlap Method Active
 MOM overlap:    29.99 / 30
Maximum Overlap Method Active
 MOM overlap:    28.00 / 28
    3    -412.3564108297      1.88e-04  
Maximum Overlap Method Active
 MOM overlap:    29.99 / 30
Maximum Overlap Method Active
 MOM overlap:    28.00 / 28
    4    -412.3638562976      1.42e-04  
Maximum Overlap Method Active
 MOM overlap:    30.00 / 30
Maximum Overlap Method Active
 MOM overlap:    28.00 / 28
    5    -412.3681650104      8.65e-05  
Maximum Overlap Method Active
 MOM overlap:    30.00 / 30
Maximum Overlap Method Active
 MOM overlap:    28.00 / 28
    6    -412.3705769129      6.63e-05  
Maximum Overlap Method Active
 MOM overlap:    30.00 / 30
Maximum Overlap Method Active
 MOM overlap:    28.00 / 28
    7    -412.3718046649      5.34e-05  
Maximum Overlap Method Active
 MOM overlap:    30.00 / 30
Maximum Overlap Method Active
 MOM overlap:    28.00 / 28
    8    -412.3731769817      4.19e-05  
Maximum Overlap Method Active
 MOM overlap:    30.00 / 30
Maximum Overlap Method Active
 MOM overlap:    28.00 / 28
    9    -412.3742965085      2.43e-05  
Maximum Overlap Method Active
 MOM overlap:    30.00 / 30
Maximum Overlap Method Active
 MOM overlap:    28.00 / 28
   10    -412.3746546924      1.04e-05  
Maximum Overlap Method Active
 MOM overlap:    30.00 / 30
Maximum Overlap Method Active
 MOM overlap:    28.00 / 28
   11    -412.3746907591      5.92e-06  
Maximum Overlap Method Active
 MOM overlap:    30.00 / 30
Maximum Overlap Method Active
 MOM overlap:    28.00 / 28
   12    -412.3747043701      4.23e-06  
Maximum Overlap Method Active
 MOM overlap:    30.00 / 30
Maximum Overlap Method Active
 MOM overlap:    28.00 / 28
   13    -412.3747117573      3.32e-06  
Maximum Overlap Method Active
 MOM overlap:    30.00 / 30
Maximum Overlap Method Active
 MOM overlap:    28.00 / 28
   14    -412.3747174890      2.62e-06  
Maximum Overlap Method Active
 MOM overlap:    30.00 / 30
Maximum Overlap Method Active
 MOM overlap:    28.00 / 28
   15    -412.3747229168      1.76e-06  
Maximum Overlap Method Active
 MOM overlap:    30.00 / 30
Maximum Overlap Method Active
 MOM overlap:    28.00 / 28
   16    -412.3747253498      1.05e-06  
Maximum Overlap Method Active
 MOM overlap:    30.00 / 30
Maximum Overlap Method Active
 MOM overlap:    28.00 / 28
   17    -412.3747261315      7.37e-07  
Maximum Overlap Method Active
 MOM overlap:    30.00 / 30
Maximum Overlap Method Active
 MOM overlap:    28.00 / 28
   18    -412.3747264985      6.59e-07  
Maximum Overlap Method Active
 MOM overlap:    30.00 / 30
Maximum Overlap Method Active
 MOM overlap:    28.00 / 28
   19    -412.3747267335      5.35e-07  
Maximum Overlap Method Active
 MOM overlap:    30.00 / 30
Maximum Overlap Method Active
 MOM overlap:    28.00 / 28
   20    -412.3747269760      4.20e-07  
Maximum Overlap Method Active
 MOM overlap:    30.00 / 30
Maximum Overlap Method Active
 MOM overlap:    28.00 / 28
   21    -412.3747271442      3.50e-07  
Maximum Overlap Method Active
 MOM overlap:    30.00 / 30
Maximum Overlap Method Active
 MOM overlap:    28.00 / 28
   22    -412.3747272610      2.43e-07  
Maximum Overlap Method Active
 MOM overlap:    30.00 / 30
Maximum Overlap Method Active
 MOM overlap:    28.00 / 28
   23    -412.3747273368      1.49e-07  
Maximum Overlap Method Active
 MOM overlap:    30.00 / 30
Maximum Overlap Method Active
 MOM overlap:    28.00 / 28
   24    -412.3747273694      5.93e-08  
Maximum Overlap Method Active
 MOM overlap:    30.00 / 30
Maximum Overlap Method Active
 MOM overlap:    28.00 / 28
   25    -412.3747273717      2.69e-08  
Maximum Overlap Method Active
 MOM overlap:    30.00 / 30
Maximum Overlap Method Active
 MOM overlap:    28.00 / 28
   26    -412.3747273719      1.55e-08  
   27    -412.3747273720      8.67e-09  Convergence criterion met
Maximum Overlap Method Active
 MOM overlap:    30.00 / 30
Maximum Overlap Method Active
 MOM overlap:    28.00 / 28
Maximum Overlap Method Active
 MOM overlap:    30.00 / 30
Maximum Overlap Method Active
 MOM overlap:    28.00 / 28
 ---------------------------------------
 SCF time:   CPU 288.73s  wall 77.00s 
<S^2> =          2.291536933
 SCF   energy in the final basis set =     -412.3747273720
 Total energy in the final basis set =     -412.3747273720


 ------------------------------------------------------------------------------

   CCMAN2: suite of methods based on coupled cluster
           and equation of motion theories.

   Components:
   * libvmm-1.3-trunk
     by Evgeny Epifanovsky, Ilya Kaliman.
   * libtensor-2.5-trunk
     by Evgeny Epifanovsky, Michael Wormit, Dmitry Zuev, Sam Manzer, 
        Ilya Kaliman.
   * libcc-2.5-trunk
     by Evgeny Epifanovsky, Arik Landau, Tomasz Kus, Kirill Khistyaev, 
        Dmitry Zuev, Prashant Manohar, Xintian Feng, Anna Krylov, 
        Matthew Goldey, Alec White, Thomas Jagau, Kaushik Nanda, 
        Anastasia Gunina, Alexander Kunitsa, Joonho Lee.

   CCMAN original authors:
   Anna I. Krylov, C. David Sherrill, Steven R. Gwaltney,
   Edward F. C. Byrd (2000)
   Sergey V. Levchenko, Lyudmila V. Slipchenko, Tao Wang,
   Ana-Maria C. Cristian (2003)
   Piotr A. Pieniazek, C. Melania Oana, Evgeny Epifanovsky (2007)
   Prashant Manohar (2009)

 ------------------------------------------------------------------------------


 Allocating and initializing 40000MB of RAM...
 Calculation will run on 4 cores.


 Alpha MOs, Unrestricted
 -- Occupied --                  
-20.693 -20.623 -15.772 -15.700 -11.497 -11.457 -11.456 -11.400
  1 A'    2 A'    3 A'    4 A'    5 A'    6 A'    7 A'    8 A'                 
 -1.527  -1.501  -1.402  -1.326  -1.184  -1.026  -0.972  -0.892
  9 A'   10 A'   11 A'   12 A'   13 A'   14 A'   15 A'   16 A'                 
 -0.847  -0.803  -0.777  -0.752  -0.728  -0.708  -0.705  -0.692
 17 A'   18 A'   19 A'    1 A"   20 A'    2 A"   21 A'   22 A'                 
 -0.614  -0.593  -0.553  -0.544  -0.501  -0.119
  3 A"   23 A'    4 A"   24 A'    5 A"   25 A'                                 
 -- Virtual --                   
 -0.007   0.003   0.009   0.012   0.023   0.024   0.028   0.031
  6 A"   26 A'   27 A'    7 A"   28 A'   29 A'   30 A'    8 A"                 
  0.032   0.038   0.042   0.045   0.045   0.049   0.051   0.054
  9 A"   31 A'   32 A'   33 A'   34 A'   35 A'   10 A"   36 A'                 
  0.060   0.061   0.066   0.067   0.072   0.073   0.076   0.079
 11 A"   37 A'   38 A'   39 A'   12 A"   40 A'   13 A"   41 A'                 
  0.089   0.100   0.104   0.105   0.106   0.112   0.117   0.124
 14 A"   42 A'   43 A'   44 A'   15 A"   45 A'   46 A'   47 A'                 
  0.132   0.137   0.138   0.141   0.146   0.158   0.167   0.170
 48 A'   49 A'   50 A'   51 A'   16 A"   17 A"   52 A'   53 A'                 
  0.172   0.192   0.195   0.201   0.211   0.215   0.221   0.226
 18 A"   54 A'   55 A'   56 A'   19 A"   57 A'   20 A"   58 A'                 
  0.233   0.240   0.241   0.247   0.248   0.261   0.273   0.292
 59 A'   60 A'   61 A'   62 A'   21 A"   63 A'   64 A'   65 A'                 
  0.295   0.300   0.303   0.336   0.341   0.351   0.358   0.369
 22 A"   66 A'   67 A'   68 A'   23 A"   69 A'   70 A'   71 A'                 
  0.380   0.382   0.393   0.400   0.404   0.418   0.431   0.436
 72 A'   24 A"   73 A'   74 A'   75 A'   76 A'   77 A'   78 A'                 
  0.446   0.464   0.499   0.508   0.557   0.565   0.576   0.633
 79 A'   80 A'   81 A'   82 A'   83 A'   84 A'   85 A'   86 A'                 
  0.664   0.672   0.693   0.711   0.718   0.728   0.742   0.769
 25 A"   87 A'   88 A'   26 A"   89 A'   27 A"   90 A'   28 A"                 
  0.812   0.824   0.860   0.887   0.895   0.903   0.924   0.949
 91 A'   92 A'   93 A'   94 A'   95 A'   96 A'   97 A'   98 A'                 
  0.952   0.965   0.998   1.021   1.028   1.034   1.086   1.110
 99 A'   29 A"  100 A'  101 A'   30 A"  102 A'  103 A'   31 A"                 
  1.161   1.184   1.204   1.218   1.258   1.298   1.298   1.339
 32 A"  104 A'  105 A'  106 A'   33 A"  107 A'   34 A"   35 A"                 
  1.344   1.345   1.380   1.391   1.426   1.448   1.474   1.478
 36 A"  108 A'   37 A"  109 A'  110 A'   38 A"  111 A'  112 A'                 
  1.532   1.628   1.668   1.710   1.723   1.800   1.804   1.816
113 A'  114 A'  115 A'   39 A"  116 A'   40 A"  117 A'  118 A'                 
  1.847   1.853   1.890   1.922   1.939   1.967   2.037   2.053
119 A'   41 A"  120 A'  121 A'   42 A"  122 A'  123 A'  124 A'                 
  2.099   2.110   2.134   2.189   2.189   2.209   2.271   2.396
 43 A"  125 A'  126 A'  127 A'   44 A"  128 A'  129 A'  130 A'                 
  2.455   2.498   2.559   2.574   2.626   2.665   2.713   2.737
 45 A"  131 A'  132 A'   46 A"   47 A"  133 A'   48 A"  134 A'                 
  2.840   2.871   2.906   2.952   2.967   2.988   3.038   3.071
135 A'  136 A'  137 A'  138 A'   49 A"  139 A'  140 A'   50 A"                 
  3.100   3.103   3.122   3.159   3.191   3.200   3.224   3.225
141 A'   51 A"   52 A"  142 A'  143 A'   53 A"  144 A'   54 A"                 
  3.266   3.417   3.463   3.586   3.609   3.667   3.676   3.733
145 A'  146 A'  147 A'   55 A"  148 A'  149 A'   56 A"  150 A'                 
  3.791   3.809   3.893   3.933   4.038   4.130   4.188   4.284
151 A'  152 A'  153 A'  154 A'  155 A'  156 A'   57 A"   58 A"                 
  4.309   4.371   4.493   4.913   5.024   5.176   5.320   5.427
157 A'  158 A'  159 A'  160 A'  161 A'  162 A'  163 A'  164 A'                 
  5.456   5.553   5.570   5.625   5.642   5.707   5.768   6.302
 59 A"   60 A"  165 A'  166 A'  167 A'  168 A'  169 A'  170 A'                 
  6.366   7.521   7.632   9.702   9.820  20.530  20.598  20.618
171 A'  172 A'  173 A'  174 A'  175 A'  176 A'  177 A'  178 A'                 
 20.738  30.043  30.149  40.726  40.826  80.091  80.136  80.160
179 A'  180 A'  181 A'  182 A'  183 A'  184 A'  185 A'  186 A'                 
 80.269 116.170 116.266 159.084 159.170 321.922 321.954 321.980
187 A'  188 A'  189 A'  190 A'  191 A'  192 A'  193 A'  194 A'                 
322.080 460.277 460.363 631.791 631.8681431.4801431.5051431.530
195 A'  196 A'  197 A'  198 A'  199 A'  200 A'  201 A'  202 A'                 
*******2012.7572012.8362759.1922759.2648749.7048749.7288749.748
203 A'  204 A'  205 A'  206 A'  207 A'  208 A'  209 A'  210 A'                 
***************************************
211 A'  212 A'  213 A'  214 A'  215 A'                                         

 Beta MOs, Unrestricted
 -- Occupied --                  
-20.666 -20.619 -15.756 -15.702 -11.499 -11.469 -11.462 -11.381
  1 A'    2 A'    3 A'    4 A'    5 A'    6 A'    7 A'    8 A'                 
 -1.499  -1.462  -1.377  -1.316  -1.136  -1.025  -0.967  -0.876
  9 A'   10 A'   11 A'   12 A'   13 A'   14 A'   15 A'   16 A'                 
 -0.841  -0.798  -0.756  -0.719  -0.719  -0.695  -0.682  -0.608
 17 A'   18 A'   19 A'   20 A'    1 A"   21 A'   22 A'    2 A"                 
 -0.568  -0.561  -0.534  -0.463
 23 A'    3 A"   24 A'    4 A"                                                 
 -- Virtual --                   
 -0.100   0.003   0.013   0.015   0.019   0.024   0.028   0.031
  5 A"   25 A'   26 A'    6 A"   27 A'    7 A"   28 A'   29 A'                 
  0.033   0.034   0.038   0.045   0.045   0.049   0.051   0.052
  8 A"   30 A'    9 A"   31 A'   32 A'   33 A'   34 A'   35 A'                 
  0.056   0.063   0.063   0.067   0.068   0.075   0.080   0.082
 10 A"   36 A'   11 A"   37 A'   38 A'   39 A'   12 A"   40 A'                 
  0.086   0.087   0.099   0.103   0.109   0.110   0.115   0.119
 13 A"   41 A'   14 A"   42 A'   43 A'   44 A'   45 A'   46 A'                 
  0.122   0.131   0.137   0.141   0.142   0.152   0.158   0.172
 15 A"   47 A'   48 A'   49 A'   50 A'   51 A'   16 A"   52 A'                 
  0.176   0.179   0.181   0.198   0.206   0.209   0.214   0.219
 17 A"   18 A"   53 A'   54 A'   55 A'   56 A'   19 A"   57 A'                 
  0.228   0.236   0.237   0.243   0.246   0.253   0.255   0.264
 58 A'   20 A"   59 A'   60 A'   61 A'   62 A'   21 A"   63 A'                 
  0.281   0.296   0.306   0.307   0.311   0.337   0.352   0.362
 64 A'   65 A'   66 A'   22 A"   67 A'   68 A'   69 A'   70 A'                 
  0.374   0.375   0.385   0.389   0.396   0.402   0.407   0.422
 23 A"   71 A'   72 A'   24 A"   73 A'   74 A'   75 A'   76 A'                 
  0.436   0.437   0.449   0.466   0.502   0.512   0.561   0.569
 77 A'   78 A'   79 A'   80 A'   81 A'   82 A'   83 A'   84 A'                 
  0.585   0.634   0.677   0.687   0.696   0.702   0.723   0.743
 85 A'   86 A'   87 A'   25 A"   88 A'   26 A"   89 A'   27 A"                 
  0.748   0.757   0.817   0.828   0.867   0.890   0.899   0.906
 90 A'   28 A"   91 A'   92 A'   93 A'   94 A'   95 A'   96 A'                 
  0.927   0.951   0.959   0.993   1.006   1.023   1.034   1.035
 97 A'   98 A'   99 A'   29 A"  100 A'  101 A'  102 A'   30 A"                 
  1.089   1.130   1.175   1.185   1.210   1.220   1.293   1.301
103 A'   31 A"   32 A"  104 A'  105 A'  106 A'   33 A"  107 A'                 
  1.332   1.347   1.352   1.358   1.392   1.397   1.435   1.443
 34 A"   35 A"  108 A'   36 A"   37 A"  109 A'  110 A'   38 A"                 
  1.478   1.484   1.536   1.633   1.674   1.715   1.725   1.802
111 A'  112 A'  113 A'  114 A'  115 A'   39 A"  116 A'   40 A"                 
  1.805   1.827   1.848   1.850   1.893   1.928   1.944   1.966
117 A'  118 A'  119 A'   41 A"  120 A'  121 A'   42 A"  122 A'                 
  2.037   2.053   2.110   2.118   2.140   2.200   2.207   2.211
123 A'  124 A'  125 A'   43 A"  126 A'  127 A'   44 A"  128 A'                 
  2.269   2.400   2.464   2.502   2.563   2.580   2.639   2.669
129 A'  130 A'   45 A"  131 A'  132 A'   46 A"   47 A"  133 A'                 
  2.726   2.739   2.844   2.882   2.909   2.962   2.992   2.993
 48 A"  134 A'  135 A'  136 A'  137 A'  138 A'   49 A"  139 A'                 
  3.042   3.060   3.105   3.106   3.166   3.173   3.215   3.225
140 A'   50 A"   51 A"  141 A'   52 A"  142 A'  143 A'   53 A"                 
  3.247   3.249   3.273   3.422   3.468   3.616   3.635   3.672
144 A'   54 A"  145 A'  146 A'  147 A'  148 A'   55 A"  149 A'                 
  3.683   3.738   3.793   3.813   3.895   3.937   4.041   4.140
 56 A"  150 A'  151 A'  152 A'  153 A'  154 A'  155 A'  156 A'                 
  4.226   4.283   4.318   4.375   4.500   4.915   5.028   5.180
 57 A"   58 A"  157 A'  158 A'  159 A'  160 A'  161 A'  162 A'                 
  5.326   5.426   5.540   5.565   5.572   5.627   5.656   5.713
163 A'  164 A'   59 A"   60 A"  165 A'  166 A'  167 A'  168 A'                 
  5.769   6.313   6.368   7.536   7.632   9.729   9.827  20.532
169 A'  170 A'  171 A'  172 A'  173 A'  174 A'  175 A'  176 A'                 
 20.598  20.614  20.740  30.052  30.149  40.740  40.829  80.091
177 A'  178 A'  179 A'  180 A'  181 A'  182 A'  183 A'  184 A'                 
 80.136  80.159  80.270 116.174 116.266 159.088 159.171 321.921
185 A'  186 A'  187 A'  188 A'  189 A'  190 A'  191 A'  192 A'                 
321.953 321.979 322.080 460.278 460.363 631.792 631.8681431.480
193 A'  194 A'  195 A'  196 A'  197 A'  198 A'  199 A'  200 A'                 
*******1431.5301431.6232012.7572012.8362759.1922759.2648749.704
201 A'  202 A'  203 A'  204 A'  205 A'  206 A'  207 A'  208 A'                 
*******8749.7488749.832********************************
209 A'  210 A'  211 A'  212 A'  213 A'  214 A'  215 A'                         

 Occupation and symmetry of molecular orbitals

 Point group: Cs (2 irreducible representations).

                           A'   A"    All 
 ------------------------------------------
 All molecular orbitals:
  - Alpha                  215  60    275 
  - Beta                   215  60    275 
 ------------------------------------------
 Alpha orbitals:
  - Frozen occupied        8    0     8   
  - Active occupied        17   5     22  
  - Active virtual         190  55    245 
  - Frozen virtual         0    0     0   
 ------------------------------------------
 Beta orbitals:
  - Frozen occupied        8    0     8   
  - Active occupied        16   4     20  
  - Active virtual         191  56    247 
  - Frozen virtual         0    0     0   
 ------------------------------------------

 Import integrals:   CPU 0.00 s  wall 0.00 s

 Import integrals:   CPU 1791.90 s  wall 755.32 s

 MP2 amplitudes:   CPU 2.21 s  wall 1.11 s

Running a double precision version
           CCSD T amplitudes will be solved using DIIS.

           Start     Size      MaxIter   EConv     TConv     
           3         7         100       1.00e-06  1.00e-04  
 ------------------------------------------------------------------------------
           Energy (a.u.)   Ediff      Tdiff       Comment
 ------------------------------------------------------------------------------
          -413.61529909                           
     1    -413.59799073   1.73e-02   9.80e-01     Step took 01.44.
     2    -413.64536806   4.74e-02   1.30e-01     
     3    -413.64486286   5.05e-04   5.42e-02     
     4    -413.65156408   6.70e-03   2.16e-02     Switched to DIIS steps.
     5    -413.65714276   5.58e-03   2.34e-02     
     6    -413.65854233   1.40e-03   8.60e-03     
     7    -413.65917000   6.28e-04   5.26e-03     
     8    -413.65938449   2.14e-04   2.45e-03     
     9    -413.65958158   1.97e-04   2.01e-03     
    10    -413.65962037   3.88e-05   1.20e-03     
    11    -413.65964292   2.26e-05   6.10e-04     
    12    -413.65966224   1.93e-05   4.71e-04     
    13    -413.65966111   1.13e-06   1.79e-04     
    14    -413.65966583   4.72e-06   1.39e-04     
    15    -413.65966122   4.62e-06   7.53e-05     
    16    -413.65965854   2.67e-06   4.75e-05     
    17    -413.65965598   2.56e-06   3.16e-05     
    18    -413.65965437   1.61e-06   1.74e-05     
    19    -413.65965364   7.28e-07   1.32e-05     
 ------------------------------------------------------------------------------
          -413.65965364                           CCSD T converged.

End of double precision
 SCF energy                 = -412.37472737
 MP2 energy                 = -413.61529909
 CCSD correlation energy    =   -1.28492627
 CCSD total energy          = -413.65965364

 CCSD  T1^2 = 0.1232  T2^2 = 0.4380  Leading amplitudes:

 Amplitude    Orbitals with energies
  0.0858       3 (A") A                  ->    6 (A") A                   
              -0.6135                         -0.0073                     
  0.0852       2 (A") A                  ->    6 (A") A                   
              -0.7081                         -0.0073                     
  0.0842       2 (A") A                  ->    13 (A") A                  
              -0.7081                          0.0756                     
  0.0834       4 (A") B                  ->    7 (A") B                   
              -0.4629                          0.0237                     

 Amplitude    Orbitals with energies
  0.0355       3 (A") A      3 (A") B    ->    6 (A") A      5 (A") B     
              -0.6135       -0.5611           -0.0073       -0.1004       
 -0.0355       3 (A") A      3 (A") B    ->    5 (A") B      6 (A") A     
              -0.6135       -0.5611           -0.1004       -0.0073       
 -0.0355       3 (A") B      3 (A") A    ->    6 (A") A      5 (A") B     
              -0.5611       -0.6135           -0.0073       -0.1004       
  0.0355       3 (A") B      3 (A") A    ->    5 (A") B      6 (A") A     
              -0.5611       -0.6135           -0.1004       -0.0073       

 Computing CCSD intermediates for later calculations in double precision
 Finished.

Running a double precision version
           CCSD Lambda amplitudes will be solved using DIIS.
           Start     Size      MaxIter   EConv     LConv     
           3         7         100       1.00e-06  1.00e-04  
 ------------------------------------------------------------------------------
            Enorm      Ldiff       Comment
 ------------------------------------------------------------------------------
     1     8.87e-02   5.13e-02     
     2     2.97e-02   7.37e-03     
     3     1.59e-02   1.09e-03     
     4     8.71e-03   1.38e-03     Switched to DIIS steps.
     5     4.00e-03   8.03e-04     
     6     2.60e-03   7.74e-06     
     7     1.52e-03   2.21e-04     
     8     9.69e-04   3.26e-04     
     9     5.48e-04   3.59e-04     
    10     3.46e-04   2.00e-04     
    11     2.02e-04   1.42e-04     
    12     9.61e-05   8.32e-05     
    13     5.52e-05   2.18e-05     
    14     2.84e-05   6.86e-06     
    15     1.65e-05   2.65e-07     
    16     1.04e-05   1.14e-06     
    17     6.36e-06   1.22e-06     
    18     4.16e-06   1.05e-06     
    19     2.79e-06   8.78e-07     
    20     1.97e-06   6.33e-07     
    21     1.42e-06   5.52e-07     
    22     9.33e-07   5.03e-07     
 ------------------------------------------------------------------------------
                                   CCSD Lambda converged.

 CCSD calculation:   CPU 11867.44 s  wall 15277.42 s

        Solving for CVS-EOMIP-CCSD A' transitions.

Running a double precision version
      CVS-EOMIP-CCSD/MP2 right amplitudes will be solved using Davidson.
        Amplitudes will be solved using shifted  algorithm.
     Hard-coded thresholds: 
     LinDepThresh=1.00e-15  NormThresh=1.00e-06  ReorthogonThresh=1.00e-02

      Roots     MaxVec    MaxIter   Precond   Conv      Shift    
      4         120       60        1         1.00e-05  1.05e+01  
 ------------------------------------------------------------------------------
      Iter ConvRoots NVecs ResNorm Current eigenvalues (eV)
 ------------------------------------------------------------------------------
      0    0      4     9.67e-01   309.7783   310.9304   311.2612   312.0011   
      1    0      8     2.20e+00   307.0474   308.1842   308.4480   309.1923   
      2    0      12    2.83e-02   296.2800   297.1237   297.7330   298.6462   
      3    0      16    2.04e-03   295.8102   296.6542   297.3327   298.2665   
      4    0      20    4.16e-04   295.7560   296.6222   297.3120   298.2436   
      5    1      24    2.35e-05   295.7426   296.6158   297.3095   298.2405*  
      6    3      27    7.20e-06   295.7413   296.6154*  297.3097*  298.2405*  
      7    4      28    4.59e-06   295.7408*  296.6154*  297.3097*  298.2405*  

     Davidson procedure converged

 EOMIP transition 1/A'
 Total energy = -402.79137707 a.u.  Excitation energy = 295.7408 eV.
 R1^2 = 0.8807  R2_CCVV^2 = 0.0018  R2_COVV^2 = 0.1184  Res^2 = 1.07e-06
 Conv-d = yes

 Amplitude    Transitions between orbitals
 -0.9384       8 (A') A                  ->    infty        
  0.0087       6 (A') A                  ->    infty        
 -0.0017       7 (A') A                  ->    infty        

              Summary of significant orbitals:

               Number  Type             Irrep      Energy
               6       Occ  Alpha       6 (A')    -11.4567
               7       Occ  Alpha       7 (A')    -11.4555
               8       Occ  Alpha       8 (A')    -11.3996


 EOMIP transition 2/A'
 Total energy = -402.75923654 a.u.  Excitation energy = 296.6154 eV.
 R1^2 = 0.8746  R2_CCVV^2 = 0.0018  R2_COVV^2 = 0.1245  Res^2 = 5.17e-06
 Conv-d = yes

 Amplitude    Transitions between orbitals
 -0.9352       6 (A') A                  ->    infty        
 -0.0094       8 (A') A                  ->    infty        
  0.0002       7 (A') A                  ->    infty        

              Summary of significant orbitals:

               Number  Type             Irrep      Energy
               6       Occ  Alpha       6 (A')    -11.4567
               7       Occ  Alpha       7 (A')    -11.4555
               8       Occ  Alpha       8 (A')    -11.3996


 EOMIP transition 3/A'
 Total energy = -402.73372240 a.u.  Excitation energy = 297.3097 eV.
 R1^2 = 0.8906  R2_CCVV^2 = 0.0018  R2_COVV^2 = 0.1084  Res^2 = 3.13e-06
 Conv-d = yes

 Amplitude    Transitions between orbitals
  0.9437       7 (A') A                  ->    infty        
 -0.0015       8 (A') A                  ->    infty        
  0.0002       6 (A') A                  ->    infty        
  0.0002       5 (A') A                  ->    infty        

              Summary of significant orbitals:

               Number  Type             Irrep      Energy
               5       Occ  Alpha       5 (A')    -11.4965
               6       Occ  Alpha       6 (A')    -11.4567
               7       Occ  Alpha       7 (A')    -11.4555
               8       Occ  Alpha       8 (A')    -11.3996


 EOMIP transition 4/A'
 Total energy = -402.69951690 a.u.  Excitation energy = 298.2405 eV.
 R1^2 = 0.8919  R2_CCVV^2 = 0.0018  R2_COVV^2 = 0.1072  Res^2 = 9.00e-06
 Conv-d = yes

 Amplitude    Transitions between orbitals
  0.9444       5 (A') A                  ->    infty        
 -0.0002       7 (A') A                  ->    infty        

              Summary of significant orbitals:

               Number  Type             Irrep      Energy
               5       Occ  Alpha       5 (A')    -11.4965
               7       Occ  Alpha       7 (A')    -11.4555


Running a double precision version
      CVS-EOMIP-CCSD/MP2 left amplitudes will be solved using Davidson.
        Amplitudes will be solved using MOM  algorithm.
     Hard-coded thresholds: 
     LinDepThresh=1.00e-15  NormThresh=1.00e-06  ReorthogonThresh=1.00e-02

      Roots     MaxVec    MaxIter   Precond   Conv      Shift    
      4         120       60        1         1.00e-05  1.05e+01  
 ------------------------------------------------------------------------------
      Iter ConvRoots NVecs ResNorm Current eigenvalues (eV)
 ------------------------------------------------------------------------------
      0    0      4     1.42e-02   296.5408   297.3692   298.0837   298.9425   
      1    0      8     5.74e-01   295.7784   296.6530   297.3320   298.2954   
      2    0      12    2.43e-02   295.7333   296.6129   297.3043   298.2288   
      3    0      16    2.26e-03   295.7496   296.6212   297.3130   298.2466   
      4    2      20    5.93e-05   295.7373   296.6142   297.3080*  298.2392*  
      5    2      22    7.81e-06   295.7404   296.6152   297.3080*  298.2392*  
      6    4      24    5.43e-06   295.7404*  296.6155*  297.3080*  298.2392*  

     Davidson procedure converged

 CVS-EOMIP-CCSD calculation:   CPU 89.01 s  wall 85.58 s


 Reference -- EOM-IP-CCSD state  1/A'   transition
 Energy difference = 295.7408 eV.

 Left Dyson orbital norm is 0.919914

Left alpha Dyson orbital in the MO basis (canonical Q-Chem's ordering):
0     -1.0578e-06
1     3.9271e-08
2     2.4902e-06
3     2.1311e-06
4     4.0040e-05
5     9.9648e-03
6     -1.8369e-03
7     -9.9995e-01
8     1.4632e-16
9     3.1652e-16
10    -4.9662e-16
11    -5.9962e-17
12    5.2420e-16
13    -2.1184e-16
14    1.2409e-16
15    -1.3334e-16
16    -3.3196e-16
17    1.0206e-16
18    -2.8951e-16
19    4.0475e-18
20    2.1035e-17
21    -2.0792e-16
22    -1.0906e-16
23    -3.3378e-16
24    3.8266e-17
25    -4.8776e-16
26    2.1644e-17
27    2.2888e-16
28    -2.4518e-16
29    -6.4577e-16
30    1.4850e-16
31    6.8413e-15
32    -8.0840e-16
33    2.7620e-16
34    -4.5036e-15
35    -9.4657e-15
36    1.6585e-15
37    -5.1711e-16
38    1.0358e-15
39    -1.1895e-14
40    -1.8674e-15
41    3.7329e-14
42    1.4894e-14
43    1.1823e-14
44    -2.9478e-15
45    -1.5827e-14
46    -7.6998e-16
47    -1.1110e-14
48    -5.0282e-14
49    2.5989e-14
50    -5.0974e-16
51    3.0637e-15
52    1.0478e-15
53    -1.3543e-14
54    -1.5849e-16
55    -4.5264e-14
56    1.4709e-14
57    2.3070e-14
58    -2.1215e-15
59    -4.7126e-15
60    -6.2083e-15
61    -7.2741e-15
62    7.0467e-15
63    5.6618e-15
64    2.3120e-14
65    3.1155e-14
66    3.7895e-16
67    -1.0298e-15
68    3.1120e-14
69    -6.5507e-15
70    7.9513e-16
71    -6.4069e-15
72    -1.2681e-14
73    -7.7585e-15
74    -7.5629e-16
75    7.3013e-15
76    -3.0555e-16
77    3.9925e-14
78    4.8819e-15
79    -5.4042e-15
80    8.6671e-15
81    1.4624e-14
82    7.4905e-16
83    1.7245e-14
84    -2.5822e-15
85    8.4467e-15
86    -7.2171e-16
87    -1.8128e-14
88    2.8507e-14
89    2.2218e-15
90    1.0501e-15
91    -3.2878e-16
92    -2.8924e-15
93    1.9346e-14
94    3.9023e-15
95    4.8334e-16
96    1.0314e-14
97    -5.7959e-15
98    -2.9347e-16
99    1.4027e-14
100   7.7033e-15
101   6.1717e-15
102   1.0658e-15
103   2.2878e-14
104   -2.4914e-16
105   1.0200e-14
106   5.7490e-16
107   -1.7594e-14
108   7.3474e-16
109   -5.3920e-15
110   -7.9061e-16
111   1.2584e-14
112   1.8865e-14
113   -6.5242e-17
114   1.8685e-15
115   -1.0657e-15
116   4.9676e-15
117   -8.6393e-16
118   3.6769e-15
119   8.8219e-15
120   3.3468e-16
121   1.7575e-14
122   -2.2905e-15
123   3.0473e-16
124   -4.6951e-15
125   -1.4920e-14
126   7.7790e-15
127   2.5095e-17
128   -6.9759e-15
129   -4.8928e-15
130   8.1682e-17
131   3.8608e-15
132   -3.4095e-16
133   -1.3482e-16
134   1.7441e-16
135   5.8156e-16
136   2.1278e-15
137   -1.3351e-16
138   -7.9863e-16
139   -2.5478e-15
140   -2.9412e-16
141   -7.1579e-16
142   2.9839e-16
143   -1.0570e-15
144   -2.9887e-16
145   -7.0147e-16
146   -4.0427e-15
147   4.9063e-16
148   -1.3072e-14
149   4.0217e-15
150   3.2326e-15
151   -3.5859e-15
152   2.4039e-15
153   -4.1110e-16
154   -2.5331e-15
155   5.8203e-16
156   -9.2634e-16
157   -2.2842e-15
158   9.3144e-16
159   2.1688e-16
160   -4.8618e-16
161   -2.1790e-15
162   -1.4160e-16
163   -5.7344e-15
164   1.0221e-15
165   -2.3309e-15
166   7.0454e-16
167   -3.2898e-15
168   1.6019e-15
169   -4.9861e-15
170   2.7157e-16
171   -2.9293e-15
172   -2.1079e-15
173   -3.7512e-15
174   9.3972e-17
175   2.9758e-15
176   6.0475e-15
177   -9.1646e-17
178   -4.1877e-17
179   -1.4439e-15
180   5.3846e-16
181   6.3517e-16
182   -1.1393e-15
183   -5.9006e-15
184   3.1371e-15
185   -3.7636e-15
186   -8.8169e-16
187   -1.7941e-15
188   -1.5665e-15
189   1.8419e-18
190   5.2429e-15
191   -1.1414e-16
192   2.6998e-16
193   -1.1889e-15
194   -2.7164e-15
195   2.3183e-16
196   3.9682e-16
197   -7.9434e-16
198   4.3313e-18
199   -2.0620e-15
200   2.2461e-15
201   -3.5073e-17
202   3.2243e-16
203   2.3145e-15
204   -5.7619e-16
205   2.0091e-15
206   -3.8109e-15
207   -1.7825e-15
208   -5.2215e-16
209   3.7674e-15
210   3.4477e-17
211   5.5944e-15
212   -7.0238e-16
213   9.6938e-17
214   5.0950e-17
215   -2.2635e-15
216   1.6818e-16
217   5.1612e-16
218   -8.0290e-17
219   1.9784e-15
220   2.2078e-15
221   2.4132e-16
222   -1.2860e-15
223   8.2550e-16
224   -9.0024e-16
225   1.8844e-17
226   -1.3798e-15
227   -2.3762e-15
228   1.7679e-15
229   -1.4660e-15
230   -1.8900e-15
231   1.8413e-15
232   3.6124e-16
233   -4.9750e-16
234   -2.0057e-16
235   2.8221e-15
236   -3.0751e-15
237   -2.7554e-16
238   3.6768e-15
239   -1.1891e-15
240   2.8809e-16
241   -2.9169e-16
242   4.7787e-16
243   -9.6697e-16
244   7.3701e-17
245   -5.6863e-16
246   -4.9452e-15
247   -1.0763e-15
248   -1.2116e-15
249   7.3426e-16
250   -1.2863e-16
251   1.5840e-15
252   -9.3781e-17
253   5.5711e-16
254   -2.6568e-15
255   1.1564e-15
256   3.2516e-16
257   -4.4938e-16
258   6.0601e-17
259   1.1020e-16
260   6.0438e-16
261   6.6774e-17
262   8.4448e-17
263   -5.7631e-16
264   -1.1008e-16
265   6.0585e-16
266   -2.4778e-16
267   5.3452e-17
268   4.4138e-16
269   -3.3438e-16
270   8.8036e-16
271   2.9171e-16
272   -1.1981e-16
273   -1.3042e-16
274   1.7058e-16

Decomposition over AOs for the left alpha Dyson orbital:
1.95025232e-05
1.50906744e-04
7.53428438e-04
2.58487510e-03
6.13126038e-03
2.39583560e-03
8.15835720e-03
-5.15679363e-05
-7.91407379e-06
-7.31668788e-17
-4.75077854e-04
-6.69650025e-04
-3.45758256e-04
-1.38269889e-15
-2.06034043e-04
7.83625270e-05
-5.58820254e-05
-5.46848793e-16
[...]
211   1.2110e-17
212   3.7800e-16
213   4.2732e-16
214   1.4570e-15
215   1.0102e-15
216   -1.1916e-15
217   1.2093e-15
218   1.6371e-15
219   -1.1397e-15
220   9.2974e-16
221   1.8215e-15
222   4.5854e-19
223   3.8514e-16
224   -5.2925e-16
225   -7.9762e-16
226   4.9693e-16
227   -6.4462e-16
228   -7.2172e-17
229   2.1284e-15
230   4.2600e-15
231   1.1063e-15
232   -1.2777e-15
233   2.2680e-15
234   3.6393e-16
235   -1.6526e-16
236   -1.8168e-16
237   1.0548e-15
238   5.1251e-16
239   -1.1185e-15
240   -1.3530e-16
241   -1.0565e-15
242   6.4788e-16
243   -5.2595e-16
244   -1.2964e-16
245   -6.6191e-16
246   -2.9288e-16
247   -8.3718e-17
248   -4.7056e-16
249   6.3572e-16
250   1.6348e-16
251   -7.9766e-17
252   1.6643e-15
253   -3.1654e-17
254   3.5762e-18
255   6.9448e-16
256   6.1978e-16
257   -4.5132e-16
258   -1.3949e-16
259   -5.8435e-16
260   4.0877e-16
261   -2.6677e-16
262   -4.7968e-16
263   -1.2314e-15
264   -2.0342e-17
265   -3.0372e-16
266   -1.7610e-17
267   -2.9996e-16
268   -5.3851e-16
269   2.0727e-17
270   -4.7146e-16
271   -2.4140e-16
272   -4.1610e-16
273   1.6289e-16
274   7.0848e-17

Decomposition over AOs for the right alpha Dyson orbital:
2.93832407e-07
2.25534832e-06
1.13867690e-05
3.85888826e-05
9.71135955e-05
6.63829311e-05
1.06242967e-04
-1.22088899e-05
9.68646103e-06
-1.13815718e-15
-7.81744912e-05
5.17450019e-05
-3.89028965e-05
-5.24784949e-15
3.03551034e-04
-1.47565032e-05
1.49721203e-04
6.43630179e-16
-2.65516058e-03
-4.53053205e-04
-1.34567212e-03
-1.66310647e-14
-3.83031116e-03
-3.40280038e-04
-3.34297829e-04
1.15157102e-14
4.96497635e-05
-6.02156339e-16
-1.43225940e-05
7.85480287e-16
4.38001426e-06
-3.39262369e-05
8.36342867e-06
-1.69388237e-04
5.08018666e-05
-3.91462478e-05
-4.57889773e-06
-1.72829769e-15
-1.18494899e-05
-1.81797308e-08
3.51217568e-05
-1.03606079e-03
5.46321220e-06
-1.08930648e-05
-1.22348280e-15
-2.48680733e-05
-1.06304529e-04
2.75735052e-04
-4.85482227e-05
2.37052681e-05
5.94042409e-05
1.74842118e-15
-1.10965981e-03
-8.59042812e-03
-4.28541653e-02
-1.47126655e-01
-3.47581418e-01
-1.26234563e-01
-4.65624402e-01
-6.73189918e-04
8.53157509e-04
-5.78171390e-16
-1.58065988e-03
7.38169439e-04
-7.98127813e-04
-8.66765697e-16
-1.43300001e-03
-3.92297586e-04
4.18412098e-04
-1.72241296e-15
5.23900407e-04
8.60254761e-04
9.65684817e-05
-5.79888258e-15
7.56834987e-04
2.68527637e-05
-1.22572890e-04
-3.04094838e-14
2.45777350e-04
1.27542726e-15
2.80208890e-04
1.97477571e-15
-2.88249372e-04
3.58524487e-07
2.64629026e-06
1.37356172e-05
4.43599958e-05
1.28606442e-04
1.62848368e-04
1.93899621e-04
-2.11696410e-04
1.12170514e-04
-1.52620557e-15
-5.39140769e-04
-4.91032915e-04
2.55769598e-04
-1.27869464e-15
3.00967516e-04
2.55050078e-04
-1.45427950e-04
-3.81478716e-15
-3.86663411e-04
-3.60912990e-04
1.57167769e-04
-3.64796781e-15
3.94399722e-04
1.67092903e-05
-1.59364727e-04
-2.90585759e-15
1.99833617e-04
4.89816476e-16
9.95817616e-05
-5.71190263e-17
-1.35489624e-04
3.54516281e-07
2.73004299e-06
1.37196527e-05
4.67167842e-05
1.14608276e-04
6.10275413e-05
1.36443007e-04
-1.74118306e-05
5.46710374e-06
2.73245780e-15
-3.56914143e-05
4.82251406e-05
-1.68897942e-05
4.15626929e-15
-7.79857320e-05
-4.32593367e-04
-1.34692674e-04
9.88578362e-15
-4.54048785e-03
4.06443767e-04
1.13446440e-03
-1.81821822e-14
2.43666737e-03
1.83881791e-04
-3.00917260e-04
2.67347979e-14
1.63330600e-05
1.01734493e-15
-9.61338946e-06
6.12824975e-16
-2.93682952e-05
1.78776403e-09
-3.07168089e-09
1.05785449e-07
-9.26792414e-08
4.12143902e-06
1.62239074e-05
-8.92442125e-06
-2.46922805e-06
-1.49901783e-06
2.69646544e-15
-4.05431646e-05
2.57606602e-05
5.09817007e-06
4.79060351e-15
1.43088560e-04
-7.52716453e-05
-5.59667277e-05
4.33080246e-15
6.94645140e-04
-2.19400748e-04
-1.37496193e-04
8.83133820e-15
6.33734754e-04
-1.58863501e-04
-1.57122686e-04
-1.21592339e-15
1.00155048e-06
-2.54600709e-16
-3.77561788e-08
-5.47435391e-16
-4.23966763e-06
3.27645550e-07
2.39761729e-06
1.25651023e-05
4.00577833e-05
1.23757925e-04
1.99453297e-04
1.21883404e-04
9.30473930e-05
4.70114659e-05
1.67505123e-15
-5.31291270e-04
5.93964275e-04
2.70167840e-04
4.57165074e-15
1.48389381e-04
-2.08733923e-04
4.46451291e-05
9.23214586e-16
-1.98694643e-04
-2.91486994e-04
-4.53251728e-04
8.48882890e-15
-1.05209704e-03
-1.83892906e-04
2.62509843e-04
5.88130489e-15
-2.08305527e-04
1.85575166e-16
8.48173409e-05
4.31638277e-16
-2.10313304e-04
2.45767447e-07
1.68059392e-06
9.70238509e-06
2.76806496e-05
1.16355044e-04
2.48269049e-04
2.69093102e-05
-1.16631621e-05
-4.72141032e-05
-2.06028891e-15
-5.18977081e-04
-1.90906545e-05
-7.15236621e-04
-4.68564217e-15
3.87126794e-05
-4.45320063e-05
1.36329214e-04
-3.80612856e-15
1.32230238e-03
-1.97921670e-04
4.13898336e-04
-6.50572670e-15
9.95298706e-04
4.43869879e-04
-1.44361383e-04
1.49724547e-14
-2.79856043e-05
4.20572573e-16
1.17281220e-04
1.33062627e-16
3.24611818e-04
9.57630567e-08
7.14605776e-07
3.75797087e-06
1.21508439e-05
3.57350881e-05
4.05152239e-05
2.31596443e-05
-9.24291687e-06
2.60693452e-06
4.06512135e-16
-6.12714926e-05
5.31411046e-05
-2.77069734e-05
6.34651206e-16
-1.70441683e-04
1.35465389e-04
-3.51189268e-05
-1.92010328e-15
5.85081698e-03
-7.41292597e-04
8.31513442e-04
1.62103061e-14
5.36303459e-04
-6.13717835e-04
-6.95310940e-04
-3.41908924e-14
-2.02117425e-05
5.47319178e-16
-6.03770732e-06
6.32536863e-16
6.07609183e-06
-5.29922439e-06
-4.77335949e-05
-7.98566722e-06
2.54730467e-05
1.22302772e-05
-9.38895061e-06
6.69421869e-16
   *****

     End transition

 Dyson orbitals calculation:   CPU 0.17 s  wall 0.25 s

 Total ccman2 time:   CPU 13784.96 s  wall 16131.31 s


 --------------------------------------------------------------
             Orbital Energies (a.u.) and Symmetries
 --------------------------------------------------------------

 Alpha MOs, Unrestricted
 -- Occupied --                  
-20.693 -20.623 -15.772 -15.700 -11.497 -11.457 -11.456 -11.400
  1 A'    2 A'    3 A'    4 A'    5 A'    6 A'    7 A'    8 A'                 
 -1.527  -1.501  -1.402  -1.326  -1.184  -1.026  -0.972  -0.892
  9 A'   10 A'   11 A'   12 A'   13 A'   14 A'   15 A'   16 A'                 
 -0.847  -0.803  -0.777  -0.752  -0.728  -0.708  -0.705  -0.692
 17 A'   18 A'   19 A'    1 A"   20 A'    2 A"   21 A'   22 A'                 
 -0.614  -0.593  -0.553  -0.544  -0.501  -0.119
  3 A"   23 A'    4 A"   24 A'    5 A"   25 A'                                 
 -- Virtual --                   
 -0.007   0.003   0.009   0.012   0.023   0.024   0.028   0.031
  6 A"   26 A'   27 A'    7 A"   28 A'   29 A'   30 A'    8 A"                 
  0.032   0.038   0.042   0.045   0.045   0.049   0.051   0.054
  9 A"   31 A'   32 A'   33 A'   34 A'   35 A'   10 A"   36 A'                 
  0.060   0.061   0.066   0.067   0.072   0.073   0.076   0.079
 11 A"   37 A'   38 A'   39 A'   12 A"   40 A'   13 A"   41 A'                 
  0.089   0.100   0.104   0.105   0.106   0.112   0.117   0.124
 14 A"   42 A'   43 A'   44 A'   15 A"   45 A'   46 A'   47 A'                 
  0.132   0.137   0.138   0.141   0.146   0.158   0.167   0.170
 48 A'   49 A'   50 A'   51 A'   16 A"   17 A"   52 A'   53 A'                 
  0.172   0.192   0.195   0.201   0.211   0.215   0.221   0.226
 18 A"   54 A'   55 A'   56 A'   19 A"   57 A'   20 A"   58 A'                 
  0.233   0.240   0.241   0.247   0.248   0.261   0.273   0.292
 59 A'   60 A'   61 A'   62 A'   21 A"   63 A'   64 A'   65 A'                 
  0.295   0.300   0.303   0.336   0.341   0.351   0.358   0.369
 22 A"   66 A'   67 A'   68 A'   23 A"   69 A'   70 A'   71 A'                 
  0.380   0.382   0.393   0.400   0.404   0.418   0.431   0.436
 72 A'   24 A"   73 A'   74 A'   75 A'   76 A'   77 A'   78 A'                 
  0.446   0.464   0.499   0.508   0.557   0.565   0.576   0.633
 79 A'   80 A'   81 A'   82 A'   83 A'   84 A'   85 A'   86 A'                 
  0.664   0.672   0.693   0.711   0.718   0.728   0.742   0.769
 25 A"   87 A'   88 A'   26 A"   89 A'   27 A"   90 A'   28 A"                 
  0.812   0.824   0.860   0.887   0.895   0.903   0.924   0.949
 91 A'   92 A'   93 A'   94 A'   95 A'   96 A'   97 A'   98 A'                 
  0.952   0.965   0.998   1.021   1.028   1.034   1.086   1.110
 99 A'   29 A"  100 A'  101 A'   30 A"  102 A'  103 A'   31 A"                 
  1.161   1.184   1.204   1.218   1.258   1.298   1.298   1.339
 32 A"  104 A'  105 A'  106 A'   33 A"  107 A'   34 A"   35 A"                 
  1.344   1.345   1.380   1.391   1.426   1.448   1.474   1.478
 36 A"  108 A'   37 A"  109 A'  110 A'   38 A"  111 A'  112 A'                 
  1.532   1.628   1.668   1.710   1.723   1.800   1.804   1.816
113 A'  114 A'  115 A'   39 A"  116 A'   40 A"  117 A'  118 A'                 
  1.847   1.853   1.890   1.922   1.939   1.967   2.037   2.053
119 A'   41 A"  120 A'  121 A'   42 A"  122 A'  123 A'  124 A'                 
  2.099   2.110   2.134   2.189   2.189   2.209   2.271   2.396
 43 A"  125 A'  126 A'  127 A'   44 A"  128 A'  129 A'  130 A'                 
  2.455   2.498   2.559   2.574   2.626   2.665   2.713   2.737
 45 A"  131 A'  132 A'   46 A"   47 A"  133 A'   48 A"  134 A'                 
  2.840   2.871   2.906   2.952   2.967   2.988   3.038   3.071
135 A'  136 A'  137 A'  138 A'   49 A"  139 A'  140 A'   50 A"                 
  3.100   3.103   3.122   3.159   3.191   3.200   3.224   3.225
141 A'   51 A"   52 A"  142 A'  143 A'   53 A"  144 A'   54 A"                 
  3.266   3.417   3.463   3.586   3.609   3.667   3.676   3.733
145 A'  146 A'  147 A'   55 A"  148 A'  149 A'   56 A"  150 A'                 
  3.791   3.809   3.893   3.933   4.038   4.130   4.188   4.284
151 A'  152 A'  153 A'  154 A'  155 A'  156 A'   57 A"   58 A"                 
  4.309   4.371   4.493   4.913   5.024   5.176   5.320   5.427
157 A'  158 A'  159 A'  160 A'  161 A'  162 A'  163 A'  164 A'                 
  5.456   5.553   5.570   5.625   5.642   5.707   5.768   6.302
 59 A"   60 A"  165 A'  166 A'  167 A'  168 A'  169 A'  170 A'                 
  6.366   7.521   7.632   9.702   9.820  20.530  20.598  20.618
171 A'  172 A'  173 A'  174 A'  175 A'  176 A'  177 A'  178 A'                 
 20.738  30.043  30.149  40.726  40.826  80.091  80.136  80.160
179 A'  180 A'  181 A'  182 A'  183 A'  184 A'  185 A'  186 A'                 
 80.269 116.170 116.266 159.084 159.170 321.922 321.954 321.980
187 A'  188 A'  189 A'  190 A'  191 A'  192 A'  193 A'  194 A'                 
322.080 460.277 460.363 631.791 631.8681431.4801431.5051431.530
195 A'  196 A'  197 A'  198 A'  199 A'  200 A'  201 A'  202 A'                 
*******2012.7572012.8362759.1922759.2648749.7048749.7288749.748
203 A'  204 A'  205 A'  206 A'  207 A'  208 A'  209 A'  210 A'                 
***************************************
211 A'  212 A'  213 A'  214 A'  215 A'                                         

 Beta MOs, Unrestricted
 -- Occupied --                  
-20.666 -20.619 -15.756 -15.702 -11.499 -11.469 -11.462 -11.381
  1 A'    2 A'    3 A'    4 A'    5 A'    6 A'    7 A'    8 A'                 
 -1.499  -1.462  -1.377  -1.316  -1.136  -1.025  -0.967  -0.876
  9 A'   10 A'   11 A'   12 A'   13 A'   14 A'   15 A'   16 A'                 
 -0.841  -0.798  -0.756  -0.719  -0.719  -0.695  -0.682  -0.608
 17 A'   18 A'   19 A'   20 A'    1 A"   21 A'   22 A'    2 A"                 
 -0.568  -0.561  -0.534  -0.463
 23 A'    3 A"   24 A'    4 A"                                                 
 -- Virtual --                   
 -0.100   0.003   0.013   0.015   0.019   0.024   0.028   0.031
  5 A"   25 A'   26 A'    6 A"   27 A'    7 A"   28 A'   29 A'                 
  0.033   0.034   0.038   0.045   0.045   0.049   0.051   0.052
  8 A"   30 A'    9 A"   31 A'   32 A'   33 A'   34 A'   35 A'                 
  0.056   0.063   0.063   0.067   0.068   0.075   0.080   0.082
 10 A"   36 A'   11 A"   37 A'   38 A'   39 A'   12 A"   40 A'                 
  0.086   0.087   0.099   0.103   0.109   0.110   0.115   0.119
 13 A"   41 A'   14 A"   42 A'   43 A'   44 A'   45 A'   46 A'                 
  0.122   0.131   0.137   0.141   0.142   0.152   0.158   0.172
 15 A"   47 A'   48 A'   49 A'   50 A'   51 A'   16 A"   52 A'                 
  0.176   0.179   0.181   0.198   0.206   0.209   0.214   0.219
 17 A"   18 A"   53 A'   54 A'   55 A'   56 A'   19 A"   57 A'                 
  0.228   0.236   0.237   0.243   0.246   0.253   0.255   0.264
 58 A'   20 A"   59 A'   60 A'   61 A'   62 A'   21 A"   63 A'                 
  0.281   0.296   0.306   0.307   0.311   0.337   0.352   0.362
 64 A'   65 A'   66 A'   22 A"   67 A'   68 A'   69 A'   70 A'                 
  0.374   0.375   0.385   0.389   0.396   0.402   0.407   0.422
 23 A"   71 A'   72 A'   24 A"   73 A'   74 A'   75 A'   76 A'                 
  0.436   0.437   0.449   0.466   0.502   0.512   0.561   0.569
 77 A'   78 A'   79 A'   80 A'   81 A'   82 A'   83 A'   84 A'                 
  0.585   0.634   0.677   0.687   0.696   0.702   0.723   0.743
 85 A'   86 A'   87 A'   25 A"   88 A'   26 A"   89 A'   27 A"                 
  0.748   0.757   0.817   0.828   0.867   0.890   0.899   0.906
 90 A'   28 A"   91 A'   92 A'   93 A'   94 A'   95 A'   96 A'                 
  0.927   0.951   0.959   0.993   1.006   1.023   1.034   1.035
 97 A'   98 A'   99 A'   29 A"  100 A'  101 A'  102 A'   30 A"                 
  1.089   1.130   1.175   1.185   1.210   1.220   1.293   1.301
103 A'   31 A"   32 A"  104 A'  105 A'  106 A'   33 A"  107 A'                 
  1.332   1.347   1.352   1.358   1.392   1.397   1.435   1.443
 34 A"   35 A"  108 A'   36 A"   37 A"  109 A'  110 A'   38 A"                 
  1.478   1.484   1.536   1.633   1.674   1.715   1.725   1.802
111 A'  112 A'  113 A'  114 A'  115 A'   39 A"  116 A'   40 A"                 
  1.805   1.827   1.848   1.850   1.893   1.928   1.944   1.966
117 A'  118 A'  119 A'   41 A"  120 A'  121 A'   42 A"  122 A'                 
  2.037   2.053   2.110   2.118   2.140   2.200   2.207   2.211
123 A'  124 A'  125 A'   43 A"  126 A'  127 A'   44 A"  128 A'                 
  2.269   2.400   2.464   2.502   2.563   2.580   2.639   2.669
129 A'  130 A'   45 A"  131 A'  132 A'   46 A"   47 A"  133 A'                 
  2.726   2.739   2.844   2.882   2.909   2.962   2.992   2.993
 48 A"  134 A'  135 A'  136 A'  137 A'  138 A'   49 A"  139 A'                 
  3.042   3.060   3.105   3.106   3.166   3.173   3.215   3.225
140 A'   50 A"   51 A"  141 A'   52 A"  142 A'  143 A'   53 A"                 
  3.247   3.249   3.273   3.422   3.468   3.616   3.635   3.672
144 A'   54 A"  145 A'  146 A'  147 A'  148 A'   55 A"  149 A'                 
  3.683   3.738   3.793   3.813   3.895   3.937   4.041   4.140
 56 A"  150 A'  151 A'  152 A'  153 A'  154 A'  155 A'  156 A'                 
  4.226   4.283   4.318   4.375   4.500   4.915   5.028   5.180
 57 A"   58 A"  157 A'  158 A'  159 A'  160 A'  161 A'  162 A'                 
  5.326   5.426   5.540   5.565   5.572   5.627   5.656   5.713
163 A'  164 A'   59 A"   60 A"  165 A'  166 A'  167 A'  168 A'                 
  5.769   6.313   6.368   7.536   7.632   9.729   9.827  20.532
169 A'  170 A'  171 A'  172 A'  173 A'  174 A'  175 A'  176 A'                 
 20.598  20.614  20.740  30.052  30.149  40.740  40.829  80.091
177 A'  178 A'  179 A'  180 A'  181 A'  182 A'  183 A'  184 A'                 
 80.136  80.159  80.270 116.174 116.266 159.088 159.171 321.921
185 A'  186 A'  187 A'  188 A'  189 A'  190 A'  191 A'  192 A'                 
321.953 321.979 322.080 460.278 460.363 631.792 631.8681431.480
193 A'  194 A'  195 A'  196 A'  197 A'  198 A'  199 A'  200 A'                 
*******1431.5301431.6232012.7572012.8362759.1922759.2648749.704
201 A'  202 A'  203 A'  204 A'  205 A'  206 A'  207 A'  208 A'                 
*******8749.7488749.832********************************
209 A'  210 A'  211 A'  212 A'  213 A'  214 A'  215 A'                         
 --------------------------------------------------------------

          Ground-State Mulliken Net Atomic Charges

     Atom                 Charge (a.u.)    Spin (a.u.)
  --------------------------------------------------------
      1 C                     1.916242      -2.238839
      2 H                     0.085113       0.337409
      3 H                    -0.095100       0.434129
      4 H                     0.397008       0.018538
      5 C                    -0.366043       0.397913
      6 O                     0.090496       0.028983
      7 C                    -0.708066      -0.218711
      8 O                     0.164028       0.552795
      9 N                    -0.501670      -0.005753
     10 N                    -0.226085       0.485554
     11 C                    -1.035230       2.214424
     12 H                     0.279308      -0.006441
  --------------------------------------------------------
  Sum of atomic charges =     0.000000
  Sum of spin   charges =     2.000000

 -----------------------------------------------------------------
                    Cartesian Multipole Moments
 -----------------------------------------------------------------
    Charge (ESU x 10^10)
                -0.0000
    Dipole Moment (Debye)
         X       5.2808      Y       5.3362      Z      -0.0000
       Tot       7.5074
    Quadrupole Moments (Debye-Ang)
        XX     -71.4310     XY     -12.2004     YY     -79.8103
        XZ       0.0000     YZ       0.0000     ZZ     -61.7228
    Octopole Moments (Debye-Ang^2)
       XXX      60.8177    XXY      37.6120    XYY      58.2630
       YYY     215.4934    XXZ      -0.0000    XYZ      -0.0000
       YYZ      -0.0000    XZZ      18.2957    YZZ      50.1272
       ZZZ      -0.0000
    Hexadecapole Moments (Debye-Ang^3)
      XXXX    -999.7487   XXXY    -157.5865   XXYY    -424.2853
      XYYY    -227.2654   YYYY   -1452.9758   XXXZ       0.0000
      XXYZ       0.0000   XYYZ       0.0000   YYYZ       0.0000
      XXZZ    -197.5662   XYZZ     -46.9972   YYZZ    -263.4926
      XZZZ       0.0000   YZZZ       0.0000   ZZZZ    -256.9694
 -----------------------------------------------------------------
Archival summary:
1\1\n-62-23-25\SP\ProcedureUnspecified\BasisUnspecified\2244(3)\malop\WedJun1222:52:042019WedJun1222:52:042019\0\\#,ProcedureUnspecified,BasisUnspecified,\\0,3\N\H,1,1.01412\C,1,1.35946,2,118.093\O,3,1.22751,1,127.463,2,-0,0\N,3,1.43032,1,114.847,2,-180,0\H,5,1.01942,3,111.61,1,180,0\C,5,1.35712,3,127.429,1,-0,0\H,7,1.08865,5,118.617,3,-180,0\C,1,1.4495,2,116.902,3,-180,0\O,9,1.2531,1,116.011,2,0,0\C,9,1.41986,1,116.235,2,-180,0\H,11,1.0899,9,118.731,1,180,0\\HF=-412.374727\\@

 Total job time:  16221.66s(wall), 14086.52s(cpu) 
 Wed Jun 12 22:52:04 2019

======= MOLDEN-FORMATTED INPUT FILE FOLLOWS =======
[Molden Format]
[Atoms] (Angs)
  C      1    6     -0.13173890     -1.79208980     -0.00000000
  H      2    1     -2.14962000     -1.30978739     -0.00000000
  H      3    1     -0.31599560     -2.86503115     -0.00000000
  H      4    1      0.14407746      2.04280963     -0.00000000
  C      5    6     -1.17258876      0.48030861     -0.00000000
  O      6    8     -2.25008207      1.06833796     -0.00000000
  C      7    6      1.31158357      0.28308717      0.00000000
  O      8    8      2.36361668      0.96389345      0.00000000
  N      9    7      0.07017030      1.03138997     -0.00000000
  N     10    7     -1.19586868     -0.94982644     -0.00000000
  C     11    6      1.19165158     -1.13169473      0.00000000
  H     12    1      2.09970506     -1.73445456      0.00000000

======= END OF MOLDEN-FORMATTED INPUT FILE =======


        *************************************************************
        *                                                           *
        *  Thank you very much for using Q-Chem.  Have a nice day.  *
        *                                                           *
        *************************************************************


