[Molden Format]
[Atoms] (Angs)
  C      1    6     -0.00714236     -1.70213747     -0.00000000
  H      2    1     -2.06882847     -1.44022412      0.00000000
  H      3    1     -0.12337987     -2.77567521      0.00000000
  H      4    1      0.04651892      1.98813947     -0.00000000
  C      5    6     -1.21953563      0.40211669      0.00000000
  O      6    8     -2.25921553      1.03043814      0.00000000
  C      7    6      1.28797806      0.34644937     -0.00000000
  O      8    8      2.31273661      1.00537216     -0.00000000
  N      9    7      0.03446295      0.97739857     -0.00000000
  N     10    7     -1.17287765     -0.98229824      0.00000000
  C     11    6      1.20107039     -1.10433419     -0.00000000
  H     12    1      2.11220096     -1.67699125     -0.00000000
[GTO]
1    0
S    1    1.000000
   4.56324000E+03    1.96665000E-03 
S    1    1.000000
   6.82024000E+02    1.52306000E-02 
S    1    1.000000
   1.54973000E+02    7.61269000E-02 
S    1    1.000000
   4.44553000E+01    2.60801000E-01 
S    1    1.000000
   1.30290000E+01    6.16462000E-01 
S    1    1.000000
   1.82773000E+00    2.21006000E-01 
SP   3    1.000000
   2.09642000E+01    1.14660000E-01   4.02487000E-02 
   4.80331000E+00    9.19999000E-01   2.37594000E-01 
   1.45933000E+00   -3.03068000E-03   8.15854000E-01 
SP   1    1.000000
   4.83456000E-01    1.00000000E+00   1.00000000E+00 
SP   1    1.000000
   1.45585000E-01    1.00000000E+00   1.00000000E+00 
SP   1    1.000000
   4.38000000E-02    1.00000000E+00   1.00000000E+00 
SP   1    1.000000
   1.31927711E-02    1.00000000E+00   1.00000000E+00 
D    1    1.000000
   6.26000000E-01    1.00000000E+00 

2    0
S    3    1.000000
   3.38650000E+01    2.54938000E-02 
   5.09479000E+00    1.90373000E-01 
   1.15879000E+00    8.52161000E-01 
S    1    1.000000
   3.25840000E-01    1.00000000E+00 
S    1    1.000000
   1.02741000E-01    1.00000000E+00 
S    1    1.000000
   3.60000000E-02    1.00000000E+00 
P    1    1.000000
   7.50000000E-01    1.00000000E+00 

3    0
S    3    1.000000
   3.38650000E+01    2.54938000E-02 
   5.09479000E+00    1.90373000E-01 
   1.15879000E+00    8.52161000E-01 
S    1    1.000000
   3.25840000E-01    1.00000000E+00 
S    1    1.000000
   1.02741000E-01    1.00000000E+00 
S    1    1.000000
   3.60000000E-02    1.00000000E+00 
P    1    1.000000
   7.50000000E-01    1.00000000E+00 

4    0
S    3    1.000000
   3.38650000E+01    2.54938000E-02 
   5.09479000E+00    1.90373000E-01 
   1.15879000E+00    8.52161000E-01 
S    1    1.000000
   3.25840000E-01    1.00000000E+00 
S    1    1.000000
   1.02741000E-01    1.00000000E+00 
S    1    1.000000
   3.60000000E-02    1.00000000E+00 
P    1    1.000000
   7.50000000E-01    1.00000000E+00 

5    0
S    1    1.000000
   4.56324000E+03    1.96665000E-03 
S    1    1.000000
   6.82024000E+02    1.52306000E-02 
S    1    1.000000
   1.54973000E+02    7.61269000E-02 
S    1    1.000000
   4.44553000E+01    2.60801000E-01 
S    1    1.000000
   1.30290000E+01    6.16462000E-01 
S    1    1.000000
   1.82773000E+00    2.21006000E-01 
SP   3    1.000000
   2.09642000E+01    1.14660000E-01   4.02487000E-02 
   4.80331000E+00    9.19999000E-01   2.37594000E-01 
   1.45933000E+00   -3.03068000E-03   8.15854000E-01 
SP   1    1.000000
   4.83456000E-01    1.00000000E+00   1.00000000E+00 
SP   1    1.000000
   1.45585000E-01    1.00000000E+00   1.00000000E+00 
SP   1    1.000000
   4.38000000E-02    1.00000000E+00   1.00000000E+00 
SP   1    1.000000
   1.31927711E-02    1.00000000E+00   1.00000000E+00 
D    1    1.000000
   6.26000000E-01    1.00000000E+00 

6    0
S    1    1.000000
   8.58850000E+03    1.89515000E-03 
S    1    1.000000
   1.29723000E+03    1.43859000E-02 
S    1    1.000000
   2.99296000E+02    7.07320000E-02 
S    1    1.000000
   8.73771000E+01    2.40001000E-01 
S    1    1.000000
   2.56789000E+01    5.94797000E-01 
S    1    1.000000
   3.74004000E+00    2.80802000E-01 
SP   3    1.000000
   4.21175000E+01    1.13889000E-01   3.65114000E-02 
   9.62837000E+00    9.20811000E-01   2.37153000E-01 
   2.85332000E+00   -3.27447000E-03   8.19702000E-01 
SP   1    1.000000
   9.05661000E-01    1.00000000E+00   1.00000000E+00 
SP   1    1.000000
   2.55611000E-01    1.00000000E+00   1.00000000E+00 
SP   1    1.000000
   8.45000000E-02    1.00000000E+00   1.00000000E+00 
SP   1    1.000000
   2.54518072E-02    1.00000000E+00   1.00000000E+00 
D    1    1.000000
   1.29200000E+00    1.00000000E+00 

7    0
S    1    1.000000
   4.56324000E+03    1.96665000E-03 
S    1    1.000000
   6.82024000E+02    1.52306000E-02 
S    1    1.000000
   1.54973000E+02    7.61269000E-02 
S    1    1.000000
   4.44553000E+01    2.60801000E-01 
S    1    1.000000
   1.30290000E+01    6.16462000E-01 
S    1    1.000000
   1.82773000E+00    2.21006000E-01 
SP   3    1.000000
   2.09642000E+01    1.14660000E-01   4.02487000E-02 
   4.80331000E+00    9.19999000E-01   2.37594000E-01 
   1.45933000E+00   -3.03068000E-03   8.15854000E-01 
SP   1    1.000000
   4.83456000E-01    1.00000000E+00   1.00000000E+00 
SP   1    1.000000
   1.45585000E-01    1.00000000E+00   1.00000000E+00 
SP   1    1.000000
   4.38000000E-02    1.00000000E+00   1.00000000E+00 
SP   1    1.000000
   1.31927711E-02    1.00000000E+00   1.00000000E+00 
D    1    1.000000
   6.26000000E-01    1.00000000E+00 

8    0
S    1    1.000000
   8.58850000E+03    1.89515000E-03 
S    1    1.000000
   1.29723000E+03    1.43859000E-02 
S    1    1.000000
   2.99296000E+02    7.07320000E-02 
S    1    1.000000
   8.73771000E+01    2.40001000E-01 
S    1    1.000000
   2.56789000E+01    5.94797000E-01 
S    1    1.000000
   3.74004000E+00    2.80802000E-01 
SP   3    1.000000
   4.21175000E+01    1.13889000E-01   3.65114000E-02 
   9.62837000E+00    9.20811000E-01   2.37153000E-01 
   2.85332000E+00   -3.27447000E-03   8.19702000E-01 
SP   1    1.000000
   9.05661000E-01    1.00000000E+00   1.00000000E+00 
SP   1    1.000000
   2.55611000E-01    1.00000000E+00   1.00000000E+00 
SP   1    1.000000
   8.45000000E-02    1.00000000E+00   1.00000000E+00 
SP   1    1.000000
   2.54518072E-02    1.00000000E+00   1.00000000E+00 
D    1    1.000000
   1.29200000E+00    1.00000000E+00 

9    0
S    1    1.000000
   6.29348000E+03    1.96979000E-03 
S    1    1.000000
   9.49044000E+02    1.49613000E-02 
S    1    1.000000
   2.18776000E+02    7.35006000E-02 
S    1    1.000000
   6.36916000E+01    2.48937000E-01 
S    1    1.000000
   1.88282000E+01    6.02460000E-01 
S    1    1.000000
   2.72023000E+00    2.56202000E-01 
SP   3    1.000000
   3.06331000E+01    1.11906000E-01   3.83119000E-02 
   7.02614000E+00    9.21666000E-01   2.37403000E-01 
   2.11205000E+00   -2.56919000E-03   8.17592000E-01 
SP   1    1.000000
   6.84009000E-01    1.00000000E+00   1.00000000E+00 
SP   1    1.000000
   2.00878000E-01    1.00000000E+00   1.00000000E+00 
SP   1    1.000000
   6.39000000E-02    1.00000000E+00   1.00000000E+00 
SP   1    1.000000
   1.92469880E-02    1.00000000E+00   1.00000000E+00 
D    1    1.000000
   9.13000000E-01    1.00000000E+00 

10    0
S    1    1.000000
   6.29348000E+03    1.96979000E-03 
S    1    1.000000
   9.49044000E+02    1.49613000E-02 
S    1    1.000000
   2.18776000E+02    7.35006000E-02 
S    1    1.000000
   6.36916000E+01    2.48937000E-01 
S    1    1.000000
   1.88282000E+01    6.02460000E-01 
S    1    1.000000
   2.72023000E+00    2.56202000E-01 
SP   3    1.000000
   3.06331000E+01    1.11906000E-01   3.83119000E-02 
   7.02614000E+00    9.21666000E-01   2.37403000E-01 
   2.11205000E+00   -2.56919000E-03   8.17592000E-01 
SP   1    1.000000
   6.84009000E-01    1.00000000E+00   1.00000000E+00 
SP   1    1.000000
   2.00878000E-01    1.00000000E+00   1.00000000E+00 
SP   1    1.000000
   6.39000000E-02    1.00000000E+00   1.00000000E+00 
SP   1    1.000000
   1.92469880E-02    1.00000000E+00   1.00000000E+00 
D    1    1.000000
   9.13000000E-01    1.00000000E+00 

11    0
S    1    1.000000
   4.56324000E+03    1.96665000E-03 
S    1    1.000000
   6.82024000E+02    1.52306000E-02 
S    1    1.000000
   1.54973000E+02    7.61269000E-02 
S    1    1.000000
   4.44553000E+01    2.60801000E-01 
S    1    1.000000
   1.30290000E+01    6.16462000E-01 
S    1    1.000000
   1.82773000E+00    2.21006000E-01 
SP   3    1.000000
   2.09642000E+01    1.14660000E-01   4.02487000E-02 
   4.80331000E+00    9.19999000E-01   2.37594000E-01 
   1.45933000E+00   -3.03068000E-03   8.15854000E-01 
SP   1    1.000000
   4.83456000E-01    1.00000000E+00   1.00000000E+00 
SP   1    1.000000
   1.45585000E-01    1.00000000E+00   1.00000000E+00 
SP   1    1.000000
   4.38000000E-02    1.00000000E+00   1.00000000E+00 
SP   1    1.000000
   1.31927711E-02    1.00000000E+00   1.00000000E+00 
D    1    1.000000
   6.26000000E-01    1.00000000E+00 

12    0
S    3    1.000000
   3.38650000E+01    2.54938000E-02 
   5.09479000E+00    1.90373000E-01 
   1.15879000E+00    8.52161000E-01 
S    1    1.000000
   3.25840000E-01    1.00000000E+00 
S    1    1.000000
   1.02741000E-01    1.00000000E+00 
S    1    1.000000
   3.60000000E-02    1.00000000E+00 
P    1    1.000000
   7.50000000E-01    1.00000000E+00 

[MO]
Sym=X
Ene=0.001205
Spin=Alpha
Occup=1
1    -5.23706493e-08
2    -4.23877556e-07
3    -1.96297408e-06
4    -7.20341224e-06
5    -1.09545207e-05
6    3.02260132e-05
7    -3.04971428e-05
8    7.18582339e-06
9    -3.20496068e-06
10    1.50187787e-15
11    -9.97835868e-05
12    0.000137340186
13    -8.94652345e-05
14    1.14199562e-15
15    -0.000124192224
16    -8.73060432e-06
17    -4.33869621e-05
18    3.22784075e-15
19    0.00319708751
20    0.000119625702
21    0.000965607373
22    -1.94045955e-14
23    0.00045843137
24    0.000362000443
25    -0.000114803446
26    -3.538486e-14
27    8.15803853e-05
28    2.56105602e-16
29    1.8206286e-05
30    3.85109765e-16
31    -2.52755702e-05
32    -7.38292391e-05
33    -2.11871257e-05
34    -1.92915723e-06
35    -3.20263695e-06
36    -3.33202703e-05
37    -5.62647501e-06
38    -4.02632012e-17
39    -5.27359705e-06
40    -2.73475414e-05
41    4.2637395e-05
42    0.000561514173
43    4.70621672e-06
44    -1.56049853e-05
45    1.01299699e-15
46    -8.37229031e-05
47    -1.20763969e-05
48    4.17894213e-05
49    -1.81611392e-05
50    -1.27894492e-05
51    3.18973798e-05
52    -6.10073192e-16
53    2.36150828e-06
54    1.83001848e-05
55    9.12502781e-05
56    0.000314409662
57    0.000753024449
58    0.000437867903
59    0.000986907325
60    1.13418941e-05
61    -1.49468277e-05
62    -2.30451071e-15
63    -0.000597676243
64    0.000311484611
65    -0.000149940047
66    -4.44446282e-16
67    0.000717596004
68    -0.000438008017
69    0.000359776621
70    -4.76982705e-15
71    0.00202001183
72    -0.0024644205
73    0.00134797809
74    -2.92759407e-14
75    -0.00104511198
76    -7.72068011e-05
77    -0.00043564315
78    1.3702243e-14
79    0.000185108337
80    -1.30065729e-16
81    0.000106374426
82    1.03878585e-15
83    -8.96672054e-05
84    -0.000845443829
85    -0.00643137597
86    -0.031534855
87    -0.10732107
88    -0.265619541
89    -0.126153131
90    -0.381639226
91    -0.00134522888
92    0.000805372191
93    -1.63436586e-15
94    -0.00418185146
95    0.000624256419
96    -0.000372679067
97    -7.200105e-16
98    0.000539536646
99    -0.000324062572
100    0.000172158255
101    -6.97244264e-15
102    -0.00284341374
103    -0.000227855636
104    0.000160634757
105    5.13854929e-15
106    -0.0070659597
107    -0.00131183523
108    0.00060779798
109    -1.11473599e-14
110    -8.30018261e-05
111    6.13299415e-16
112    -4.96600674e-05
113    -3.61053473e-16
114    3.69357731e-05
115    -2.53610985e-06
116    -1.96644678e-05
117    -9.78762636e-05
118    -0.000337136722
119    -0.000794206132
120    -0.000324249893
121    -0.00106440446
122    2.4506863e-05
123    -3.22534e-06
124    9.28878731e-16
125    9.29533977e-05
126    0.000283854801
127    8.86594335e-05
128    -1.95460966e-15
129    -0.000430746702
130    -0.000261178499
131    -0.000155865182
132    6.55701977e-15
133    0.00120033939
134    -0.00217995073
135    -0.000941023378
136    -3.67685401e-14
137    0.000347000668
138    -0.000248781305
139    0.000486839481
140    -6.05202105e-14
141    0.000140142905
142    -1.98137872e-16
143    -3.56955542e-05
144    4.60608379e-16
145    6.3912867e-06
146    0.000399026276
147    0.00303542359
148    0.0148835722
149    0.0506523073
150    0.125366221
151    0.0595901187
152    0.180099963
153    -0.000616192826
154    -0.000375214838
155    -1.46582454e-16
156    0.00198896065
157    0.000304062449
158    0.000183083185
159    3.11625308e-16
160    -0.000270393685
161    -0.000169511989
162    -8.93808308e-05
163    -1.12045492e-15
164    0.00161737055
165    -0.000114255207
166    -0.000133174279
167    9.27140276e-16
168    0.00466507509
169    -0.000817014873
170    -0.000251081919
171    1.48565959e-14
172    -4.41290786e-05
173    2.66404231e-16
174    3.86022304e-05
175    1.63383127e-16
176    -2.54456456e-05
177    -0.000365625331
178    -0.00278390014
179    -0.0136402413
180    -0.0463007548
181    -0.11193987
182    -0.0479850148
183    -0.155794336
184    2.28341361e-05
185    7.83360222e-05
186    -1.6444992e-15
187    -0.00146002555
188    4.31057508e-05
189    -2.69722739e-05
190    2.74275084e-15
191    0.000149751406
192    3.72096955e-05
193    -2.82957156e-05
194    -1.02046028e-14
195    -0.000695671461
196    -1.24313741e-05
197    -3.53603206e-05
198    2.11631384e-14
199    1.46546381e-05
200    -0.00303482344
201    0.000126299968
202    2.45762951e-14
203    -9.67366164e-06
204    4.69514915e-16
205    4.60680307e-06
206    1.0371075e-15
207    -1.49434816e-05
208    -0.000322720371
209    -0.00245722288
210    -0.0120394584
211    -0.0408670936
212    -0.0988033296
213    -0.0424935027
214    -0.137444821
215    -0.000130228815
216    -6.32541435e-05
217    -1.38510287e-15
218    -0.00147588301
219    0.000105280227
220    -2.17562492e-05
221    2.40171319e-15
222    0.000460229128
223    5.44020775e-05
224    6.58561239e-05
225    -8.11054833e-15
226    -0.000469349946
227    2.76529072e-05
228    -1.64336442e-05
229    1.89594783e-14
230    0.00121533506
231    -0.000242403544
232    0.000510471535
233    1.01106026e-14
234    -1.13588843e-05
235    -4.92542898e-16
236    -9.10843925e-05
237    5.06011618e-16
238    1.33486774e-05
239    7.48097775e-08
240    5.54242334e-07
241    2.94482542e-06
242    9.4026262e-06
243    2.83130694e-05
244    3.29444401e-05
245    1.71689973e-05
246    -7.9210843e-06
247    1.50274817e-07
248    8.82823542e-16
249    -5.82423598e-05
250    4.26871361e-05
251    7.11685537e-06
252    6.96916516e-16
253    7.55013636e-05
254    -7.93001681e-05
255    3.0053784e-05
256    4.33288412e-16
257    -0.0037215442
258    0.00115622251
259    -0.000337897085
260    1.96800216e-14
261    0.00011503179
262    0.000152183745
263    0.000247459909
264    5.78255482e-14
265    6.29748218e-06
266    -3.17902326e-16
267    1.1455354e-06
268    -4.64068138e-16
269    -1.61528042e-05
270    -3.33023789e-06
271    1.85947254e-05
272    8.75035553e-06
273    -0.000368346072
274    -4.65533105e-07
275    -1.07199526e-06
276    6.23865801e-16
[5D]