[Molden Format]
[Atoms] (Angs)
  C      1    6     -0.00714236     -1.70213747     -0.00000000
  H      2    1     -2.06882847     -1.44022412      0.00000000
  H      3    1     -0.12337987     -2.77567521      0.00000000
  H      4    1      0.04651892      1.98813947     -0.00000000
  C      5    6     -1.21953563      0.40211669      0.00000000
  O      6    8     -2.25921553      1.03043814      0.00000000
  C      7    6      1.28797806      0.34644937     -0.00000000
  O      8    8      2.31273661      1.00537216     -0.00000000
  N      9    7      0.03446295      0.97739857     -0.00000000
  N     10    7     -1.17287765     -0.98229824      0.00000000
  C     11    6      1.20107039     -1.10433419     -0.00000000
  H     12    1      2.11220096     -1.67699125     -0.00000000
[GTO]
1    0
S    1    1.000000
   4.56324000E+03    1.96665000E-03 
S    1    1.000000
   6.82024000E+02    1.52306000E-02 
S    1    1.000000
   1.54973000E+02    7.61269000E-02 
S    1    1.000000
   4.44553000E+01    2.60801000E-01 
S    1    1.000000
   1.30290000E+01    6.16462000E-01 
S    1    1.000000
   1.82773000E+00    2.21006000E-01 
SP   3    1.000000
   2.09642000E+01    1.14660000E-01   4.02487000E-02 
   4.80331000E+00    9.19999000E-01   2.37594000E-01 
   1.45933000E+00   -3.03068000E-03   8.15854000E-01 
SP   1    1.000000
   4.83456000E-01    1.00000000E+00   1.00000000E+00 
SP   1    1.000000
   1.45585000E-01    1.00000000E+00   1.00000000E+00 
SP   1    1.000000
   4.38000000E-02    1.00000000E+00   1.00000000E+00 
SP   1    1.000000
   1.31927711E-02    1.00000000E+00   1.00000000E+00 
D    1    1.000000
   6.26000000E-01    1.00000000E+00 

2    0
S    3    1.000000
   3.38650000E+01    2.54938000E-02 
   5.09479000E+00    1.90373000E-01 
   1.15879000E+00    8.52161000E-01 
S    1    1.000000
   3.25840000E-01    1.00000000E+00 
S    1    1.000000
   1.02741000E-01    1.00000000E+00 
S    1    1.000000
   3.60000000E-02    1.00000000E+00 
P    1    1.000000
   7.50000000E-01    1.00000000E+00 

3    0
S    3    1.000000
   3.38650000E+01    2.54938000E-02 
   5.09479000E+00    1.90373000E-01 
   1.15879000E+00    8.52161000E-01 
S    1    1.000000
   3.25840000E-01    1.00000000E+00 
S    1    1.000000
   1.02741000E-01    1.00000000E+00 
S    1    1.000000
   3.60000000E-02    1.00000000E+00 
P    1    1.000000
   7.50000000E-01    1.00000000E+00 

4    0
S    3    1.000000
   3.38650000E+01    2.54938000E-02 
   5.09479000E+00    1.90373000E-01 
   1.15879000E+00    8.52161000E-01 
S    1    1.000000
   3.25840000E-01    1.00000000E+00 
S    1    1.000000
   1.02741000E-01    1.00000000E+00 
S    1    1.000000
   3.60000000E-02    1.00000000E+00 
P    1    1.000000
   7.50000000E-01    1.00000000E+00 

5    0
S    1    1.000000
   4.56324000E+03    1.96665000E-03 
S    1    1.000000
   6.82024000E+02    1.52306000E-02 
S    1    1.000000
   1.54973000E+02    7.61269000E-02 
S    1    1.000000
   4.44553000E+01    2.60801000E-01 
S    1    1.000000
   1.30290000E+01    6.16462000E-01 
S    1    1.000000
   1.82773000E+00    2.21006000E-01 
SP   3    1.000000
   2.09642000E+01    1.14660000E-01   4.02487000E-02 
   4.80331000E+00    9.19999000E-01   2.37594000E-01 
   1.45933000E+00   -3.03068000E-03   8.15854000E-01 
SP   1    1.000000
   4.83456000E-01    1.00000000E+00   1.00000000E+00 
SP   1    1.000000
   1.45585000E-01    1.00000000E+00   1.00000000E+00 
SP   1    1.000000
   4.38000000E-02    1.00000000E+00   1.00000000E+00 
SP   1    1.000000
   1.31927711E-02    1.00000000E+00   1.00000000E+00 
D    1    1.000000
   6.26000000E-01    1.00000000E+00 

6    0
S    1    1.000000
   8.58850000E+03    1.89515000E-03 
S    1    1.000000
   1.29723000E+03    1.43859000E-02 
S    1    1.000000
   2.99296000E+02    7.07320000E-02 
S    1    1.000000
   8.73771000E+01    2.40001000E-01 
S    1    1.000000
   2.56789000E+01    5.94797000E-01 
S    1    1.000000
   3.74004000E+00    2.80802000E-01 
SP   3    1.000000
   4.21175000E+01    1.13889000E-01   3.65114000E-02 
   9.62837000E+00    9.20811000E-01   2.37153000E-01 
   2.85332000E+00   -3.27447000E-03   8.19702000E-01 
SP   1    1.000000
   9.05661000E-01    1.00000000E+00   1.00000000E+00 
SP   1    1.000000
   2.55611000E-01    1.00000000E+00   1.00000000E+00 
SP   1    1.000000
   8.45000000E-02    1.00000000E+00   1.00000000E+00 
SP   1    1.000000
   2.54518072E-02    1.00000000E+00   1.00000000E+00 
D    1    1.000000
   1.29200000E+00    1.00000000E+00 

7    0
S    1    1.000000
   4.56324000E+03    1.96665000E-03 
S    1    1.000000
   6.82024000E+02    1.52306000E-02 
S    1    1.000000
   1.54973000E+02    7.61269000E-02 
S    1    1.000000
   4.44553000E+01    2.60801000E-01 
S    1    1.000000
   1.30290000E+01    6.16462000E-01 
S    1    1.000000
   1.82773000E+00    2.21006000E-01 
SP   3    1.000000
   2.09642000E+01    1.14660000E-01   4.02487000E-02 
   4.80331000E+00    9.19999000E-01   2.37594000E-01 
   1.45933000E+00   -3.03068000E-03   8.15854000E-01 
SP   1    1.000000
   4.83456000E-01    1.00000000E+00   1.00000000E+00 
SP   1    1.000000
   1.45585000E-01    1.00000000E+00   1.00000000E+00 
SP   1    1.000000
   4.38000000E-02    1.00000000E+00   1.00000000E+00 
SP   1    1.000000
   1.31927711E-02    1.00000000E+00   1.00000000E+00 
D    1    1.000000
   6.26000000E-01    1.00000000E+00 

8    0
S    1    1.000000
   8.58850000E+03    1.89515000E-03 
S    1    1.000000
   1.29723000E+03    1.43859000E-02 
S    1    1.000000
   2.99296000E+02    7.07320000E-02 
S    1    1.000000
   8.73771000E+01    2.40001000E-01 
S    1    1.000000
   2.56789000E+01    5.94797000E-01 
S    1    1.000000
   3.74004000E+00    2.80802000E-01 
SP   3    1.000000
   4.21175000E+01    1.13889000E-01   3.65114000E-02 
   9.62837000E+00    9.20811000E-01   2.37153000E-01 
   2.85332000E+00   -3.27447000E-03   8.19702000E-01 
SP   1    1.000000
   9.05661000E-01    1.00000000E+00   1.00000000E+00 
SP   1    1.000000
   2.55611000E-01    1.00000000E+00   1.00000000E+00 
SP   1    1.000000
   8.45000000E-02    1.00000000E+00   1.00000000E+00 
SP   1    1.000000
   2.54518072E-02    1.00000000E+00   1.00000000E+00 
D    1    1.000000
   1.29200000E+00    1.00000000E+00 

9    0
S    1    1.000000
   6.29348000E+03    1.96979000E-03 
S    1    1.000000
   9.49044000E+02    1.49613000E-02 
S    1    1.000000
   2.18776000E+02    7.35006000E-02 
S    1    1.000000
   6.36916000E+01    2.48937000E-01 
S    1    1.000000
   1.88282000E+01    6.02460000E-01 
S    1    1.000000
   2.72023000E+00    2.56202000E-01 
SP   3    1.000000
   3.06331000E+01    1.11906000E-01   3.83119000E-02 
   7.02614000E+00    9.21666000E-01   2.37403000E-01 
   2.11205000E+00   -2.56919000E-03   8.17592000E-01 
SP   1    1.000000
   6.84009000E-01    1.00000000E+00   1.00000000E+00 
SP   1    1.000000
   2.00878000E-01    1.00000000E+00   1.00000000E+00 
SP   1    1.000000
   6.39000000E-02    1.00000000E+00   1.00000000E+00 
SP   1    1.000000
   1.92469880E-02    1.00000000E+00   1.00000000E+00 
D    1    1.000000
   9.13000000E-01    1.00000000E+00 

10    0
S    1    1.000000
   6.29348000E+03    1.96979000E-03 
S    1    1.000000
   9.49044000E+02    1.49613000E-02 
S    1    1.000000
   2.18776000E+02    7.35006000E-02 
S    1    1.000000
   6.36916000E+01    2.48937000E-01 
S    1    1.000000
   1.88282000E+01    6.02460000E-01 
S    1    1.000000
   2.72023000E+00    2.56202000E-01 
SP   3    1.000000
   3.06331000E+01    1.11906000E-01   3.83119000E-02 
   7.02614000E+00    9.21666000E-01   2.37403000E-01 
   2.11205000E+00   -2.56919000E-03   8.17592000E-01 
SP   1    1.000000
   6.84009000E-01    1.00000000E+00   1.00000000E+00 
SP   1    1.000000
   2.00878000E-01    1.00000000E+00   1.00000000E+00 
SP   1    1.000000
   6.39000000E-02    1.00000000E+00   1.00000000E+00 
SP   1    1.000000
   1.92469880E-02    1.00000000E+00   1.00000000E+00 
D    1    1.000000
   9.13000000E-01    1.00000000E+00 

11    0
S    1    1.000000
   4.56324000E+03    1.96665000E-03 
S    1    1.000000
   6.82024000E+02    1.52306000E-02 
S    1    1.000000
   1.54973000E+02    7.61269000E-02 
S    1    1.000000
   4.44553000E+01    2.60801000E-01 
S    1    1.000000
   1.30290000E+01    6.16462000E-01 
S    1    1.000000
   1.82773000E+00    2.21006000E-01 
SP   3    1.000000
   2.09642000E+01    1.14660000E-01   4.02487000E-02 
   4.80331000E+00    9.19999000E-01   2.37594000E-01 
   1.45933000E+00   -3.03068000E-03   8.15854000E-01 
SP   1    1.000000
   4.83456000E-01    1.00000000E+00   1.00000000E+00 
SP   1    1.000000
   1.45585000E-01    1.00000000E+00   1.00000000E+00 
SP   1    1.000000
   4.38000000E-02    1.00000000E+00   1.00000000E+00 
SP   1    1.000000
   1.31927711E-02    1.00000000E+00   1.00000000E+00 
D    1    1.000000
   6.26000000E-01    1.00000000E+00 

12    0
S    3    1.000000
   3.38650000E+01    2.54938000E-02 
   5.09479000E+00    1.90373000E-01 
   1.15879000E+00    8.52161000E-01 
S    1    1.000000
   3.25840000E-01    1.00000000E+00 
S    1    1.000000
   1.02741000E-01    1.00000000E+00 
S    1    1.000000
   3.60000000E-02    1.00000000E+00 
P    1    1.000000
   7.50000000E-01    1.00000000E+00 

[MO]
Sym=X
Ene=0.006223
Spin=Alpha
Occup=1
1    -3.47367754e-08
2    -2.64502505e-07
3    -1.35343894e-06
4    -4.52414064e-06
5    -1.18095072e-05
6    -8.87140866e-06
7    -1.27613805e-05
8    -2.32066617e-06
9    4.23667093e-07
10    1.68361371e-15
11    1.44225774e-05
12    3.3278813e-06
13    9.25594829e-06
14    1.53648304e-15
15    -5.6642991e-05
16    1.19214154e-05
17    2.16787566e-05
18    2.92698601e-15
19    0.00313382224
20    0.000164261307
21    0.000808529352
22    -2.03151752e-14
23    0.000580558589
24    0.000386407008
25    -0.000195204168
26    -5.56805703e-14
27    4.26479191e-06
28    4.25534486e-16
29    -1.95264691e-06
30    1.82827099e-16
31    3.07472317e-06
32    -5.53104578e-07
33    3.38978163e-05
34    2.13557797e-05
35    -6.35648127e-08
36    5.35547308e-07
37    1.29752884e-05
38    1.60311919e-16
39    -1.53073227e-06
40    1.65130125e-05
41    9.40010777e-06
42    0.000445188138
43    1.54675109e-06
44    3.48221726e-06
45    1.29865792e-15
46    -1.59372236e-05
47    -2.04540412e-06
48    5.04347012e-05
49    -0.000107750865
50    -1.51002081e-05
51    4.53524994e-06
52    -4.94507013e-16
53    2.46662328e-07
54    1.95627109e-06
55    9.48017717e-06
56    3.44494877e-05
57    8.3828574e-05
58    0.000158266186
59    0.000104903388
60    2.52619065e-05
61    -1.89057752e-05
62    -1.64975827e-15
63    -0.000453164052
64    0.00044464862
65    -0.000294044066
66    2.29874722e-16
67    0.000748893225
68    -0.00045906967
69    0.000294988529
70    -2.95351919e-15
71    0.00170883891
72    -0.00294034636
73    0.00162706804
74    -3.65228822e-14
75    -0.00173876812
76    -0.000218845049
77    -0.000455188024
78    1.69826288e-14
79    0.000228752604
80    -1.93510732e-16
81    9.20316829e-05
82    8.84929509e-16
83    -0.000141450955
84    -0.000931312891
85    -0.00708458084
86    -0.0347377707
87    -0.11822114
88    -0.29259971
89    -0.138974555
90    -0.420394402
91    -0.00148853556
92    0.000892146276
93    -1.17296324e-15
94    -0.0045979988
95    0.000704866171
96    -0.000422081191
97    1.26624557e-16
98    0.000657075246
99    -0.000340594883
100    0.000193055128
101    -6.54685766e-15
102    -0.00316110854
103    -0.000243815456
104    0.000180179076
105    8.60473144e-15
106    -0.00816011605
107    -0.00148627722
108    0.000675125801
109    -1.34271898e-14
110    -9.79057023e-05
111    6.55268332e-16
112    -5.70498297e-05
113    -5.38204487e-17
114    4.36711507e-05
115    -1.10752696e-06
116    -8.60078266e-06
117    -4.27351616e-05
118    -0.000147760473
119    -0.000349318197
120    -0.000184359342
121    -0.000465495512
122    1.46674875e-05
123    8.07555403e-06
124    2.75100142e-16
125    0.000192718228
126    0.000243174564
127    0.000132534711
128    -1.91751368e-15
129    -0.000385479783
130    -0.000291327808
131    -0.000203105163
132    4.45324458e-15
133    0.00127904255
134    -0.0024643449
135    -0.00107423409
136    -3.28669904e-14
137    0.000404568251
138    -0.00038010311
139    0.000598822912
140    -7.18465125e-14
141    0.000124558123
142    -1.74545564e-16
143    -4.53618879e-05
144    2.1607777e-16
145    4.43672028e-05
146    0.00046596575
147    0.00354464642
148    0.0173803762
149    0.0591497671
150    0.146395416
151    0.0695787849
152    0.210318534
153    -0.000713803644
154    -0.000439290463
155    -4.99206483e-16
156    0.00233622988
157    0.000339573909
158    0.000207466507
159    -4.20256134e-16
160    -0.000317687149
161    -0.000183415745
162    -9.65095769e-05
163    -1.99581579e-15
164    0.00177627656
165    -0.000113065588
166    -0.000137332173
167    -5.70170601e-16
168    0.00524948491
169    -0.000918971531
170    -0.000252531646
171    1.01104366e-14
172    -5.00322154e-05
173    4.03559108e-16
174    4.32435529e-05
175    3.94644515e-16
176    -2.31883075e-05
177    -6.22129401e-05
178    -0.000473706588
179    -0.00232092609
180    -0.00787855284
181    -0.0190449087
182    -0.00815545133
183    -0.0265156594
184    -1.24348468e-05
185    1.60637081e-05
186    -1.92968827e-15
187    -0.00026619985
188    6.10465716e-05
189    -1.03797325e-05
190    3.77745717e-15
191    5.15842547e-05
192    2.95909172e-06
193    -4.63559005e-07
194    -1.11965356e-14
195    -0.000367980548
196    -1.49815833e-05
197    -6.43381416e-05
198    2.32550199e-14
199    0.000247118282
200    -0.00353969912
201    0.000129977761
202    2.89710723e-14
203    -7.35119711e-06
204    3.80547523e-16
205    1.05339438e-06
206    9.02465046e-16
207    -1.49552033e-05
208    3.75224661e-05
209    0.000285662229
210    0.0013999014
211    0.00475082679
212    0.0114947216
213    0.00497100408
214    0.0159594186
215    6.64952086e-06
216    2.34462251e-05
217    -1.04654467e-15
218    0.00012334729
219    1.26062772e-05
220    -5.25243971e-05
221    3.03058592e-15
222    2.73545076e-05
223    3.85328698e-05
224    2.72103883e-05
225    -7.93400405e-15
226    0.000280187055
227    0.000202120433
228    6.6373492e-05
229    2.29686701e-14
230    0.00183360092
231    -0.000194847287
232    0.000636551749
233    1.74336872e-14
234    1.86018102e-05
235    -5.25358782e-16
236    1.48380293e-05
237    4.97937462e-16
238    2.3790585e-05
239    2.07949691e-07
240    1.60740687e-06
241    8.03770052e-06
242    2.7517607e-05
243    6.54071022e-05
244    2.41002012e-05
245    8.71229231e-05
246    -4.01248454e-06
247    -4.1965004e-06
248    1.11708117e-15
249    -2.45606975e-06
250    1.61481887e-05
251    2.13784183e-05
252    -4.31471587e-16
253    -9.26455335e-05
254    2.6437558e-05
255    -5.47992139e-05
256    1.93193632e-15
257    -0.0038552712
258    0.00129139845
259    -0.00031092157
260    1.54669917e-14
261    0.000372127573
262    0.000256831619
263    0.000394814945
264    8.01549973e-14
265    1.38081241e-05
266    -5.1411751e-16
267    -6.21246112e-07
268    -7.42453306e-16
269    -1.36487916e-05
270    1.81539623e-06
271    1.02987296e-05
272    -5.28513637e-05
273    -0.000435482454
274    -4.54360345e-06
275    -1.17980152e-07
276    4.53484314e-16
[5D]