                  Welcome to Q-Chem
     A Quantum Leap Into The Future Of Chemistry


 Q-Chem 5.2 (devel), Q-Chem, Inc., Pleasanton, CA (2019)

 Yihan Shao,  Zhengting Gan,  E. Epifanovsky,  A. T. B. Gilbert,  M. Wormit,  
 J. Kussmann,  A. W. Lange,  A. Behn,  Jia Deng,  Xintian Feng,  D. Ghosh,  
 M. Goldey,  P. R. Horn,  L. D. Jacobson,  I. Kaliman,  T. Kus,  A. Landau,  
 Jie Liu,  E. I. Proynov,  R. M. Richard,  R. P. Steele,  E. J. Sundstrom,  
 H. L. Woodcock III,  P. M. Zimmerman,  D. Zuev,  B. Albrecht,  E. Alguire,  
 S. A. Baeppler,  D. Barton,  Z. Benda,  Y. A. Bernard,  E. J. Berquist,  
 K. B. Bravaya,  H. Burton,  D. Casanova,  Chun-Min Chang,  Yunqing Chen,  
 A. Chien,  K. D. Closser,  M. P. Coons,  S. Coriani,  S. Dasgupta,  
 A. L. Dempwolff,  M. Diedenhofen,  Hainam Do,  R. G. Edgar,  Po-Tung Fang,  
 S. Faraji,  S. Fatehi,  Qingguo Feng,  K. D. Fenk,  J. Fosso-Tande,  
 J. Gayvert,  Qinghui Ge,  A. Ghysels,  G. Gidofalvi,  J. Gomes,  
 J. Gonthier,  A. Gunina,  D. Hait,  M. W. D. Hanson-Heine,  
 P. H. P. Harbach,  A. W. Hauser,  M. F. Herbst,  J. E. Herr,  
 E. G. Hohenstein,  Z. C. Holden,  Kerwin Hui,  B. C. Huynh,  T.-C. Jagau,  
 Hyunjun Ji,  B. Kaduk,  K. Khistyaev,  Jaehoon Kim,  P. Klunzinger,  K. Koh,  
 D. Kosenkov,  L. Koulias,  T. Kowalczyk,  C. M. Krauter,  A. Kunitsa,  
 Ka Un Lao,  A. Laurent,  K. V. Lawler,  Joonho Lee,  D. Lefrancois,  
 S. Lehtola,  D. S. Levine,  Yi-Pei Li,  You-Sheng Lin,  Fenglai Liu,  
 E. Livshits,  A. Luenser,  P. Manohar,  E. Mansoor,  S. F. Manzer,  
 Shan-Ping Mao,  Yuezhi Mao,  N. Mardirossian,  A. V. Marenich,  
 T. Markovich,  L. A. Martinez-Martinez,  S. A. Maurer,  N. J. Mayhall,  
 S. C. McKenzie,  J.-M. Mewes,  P. Morgante,  A. F. Morrison,  
 J. W. Mullinax,  K. Nanda,  T. S. Nguyen-Beck,  R. Olivares-Amaya,  
 J. A. Parkhill,  Zheng Pei,  T. M. Perrine,  F. Plasser,  P. Pokhilko,  
 S. Prager,  A. Prociuk,  E. Ramos,  D. R. Rehn,  F. Rob,  M. Scheurer,  
 M. Schneider,  N. Sergueev,  S. M. Sharada,  S. Sharma,  D. W. Small,  
 T. Stauch,  T. Stein,  Yu-Chuan Su,  A. J. W. Thom,  A. Tkatchenko,  
 T. Tsuchimochi,  N. M. Tubman,  L. Vogt,  M. L. Vidal,  O. Vydrov,  
 M. A. Watson,  J. Wenzel,  M. de Wergifosse,  T. A. Wesolowski,  A. White,  
 J. Witte,  A. Yamada,  Jun Yang,  K. Yao,  S. Yeganeh,  S. R. Yost,  
 Zhi-Qiang You,  A. Zech,  Igor Ying Zhang,  Xing Zhang,  Yan Zhao,  
 Ying Zhu,  B. R. Brooks,  G. K. L. Chan,  C. J. Cramer,  M. S. Gordon,  
 W. J. Hehre,  A. Klamt,  M. W. Schmidt,  C. D. Sherrill,  D. G. Truhlar,  
 A. Aspuru-Guzik,  R. Baer,  A. T. Bell,  N. A. Besley,  Jeng-Da Chai,  
 A. E. DePrince, III,  R. A. DiStasio Jr.,  A. Dreuw,  B. D. Dunietz,  
 T. R. Furlani,  Chao-Ping Hsu,  Yousung Jung,  Jing Kong,  D. S. Lambrecht,  
 WanZhen Liang,  C. Ochsenfeld,  V. A. Rassolov,  L. V. Slipchenko,  
 J. E. Subotnik,  T. Van Voorhis,  J. M. Herbert,  A. I. Krylov,  
 P. M. W. Gill,  M. Head-Gordon

 Contributors to earlier versions of Q-Chem not listed above: 
 R. D. Adamson,  B. Austin,  J. Baker,  G. J. O. Beran,  K. Brandhorst,  
 S. T. Brown,  E. F. C. Byrd,  A. K. Chakraborty,  C.-L. Cheng,  
 Siu Hung Chien,  D. M. Chipman,  D. L. Crittenden,  H. Dachsel,  
 R. J. Doerksen,  A. D. Dutoi,  L. Fusti-Molnar,  W. A. Goddard III,  
 A. Golubeva-Zadorozhnaya,  S. R. Gwaltney,  G. Hawkins,  A. Heyden,  
 S. Hirata,  G. Kedziora,  F. J. Keil,  C. Kelley,  Jihan Kim,  R. A. King,  
 R. Z. Khaliullin,  P. P. Korambath,  W. Kurlancheek,  A. M. Lee,  M. S. Lee,  
 S. V. Levchenko,  Ching Yeh Lin,  D. Liotard,  R. C. Lochan,  I. Lotan,  
 P. E. Maslen,  N. Nair,  D. P. O'Neill,  D. Neuhauser,  E. Neuscamman,  
 C. M. Oana,  R. Olson,  B. Peters,  R. Peverati,  P. A. Pieniazek,  
 Y. M. Rhee,  J. Ritchie,  M. A. Rohrdanz,  E. Rosta,  N. J. Russ,  
 H. F. Schaefer III,  N. E. Schultz,  N. Shenvi,  A. C. Simmonett,  A. Sodt,  
 D. Stuck,  K. S. Thanthiriwatte,  V. Vanovschi,  Tao Wang,  A. Warshel,  
 C. F. Williams,  Q. Wu,  X. Xu,  W. Zhang

 Please cite Q-Chem as follows:
 Y. Shao et al., Mol. Phys. 113, 184-215 (2015)
 DOI: 10.1080/00268976.2014.952696

 Q-Chem 5.2.0 for Intel X86 EM64T Linux

 Parts of Q-Chem use Armadillo 8.300.2 (Tropical Shenanigans).
 http://arma.sourceforge.net/

 Q-Chem begins on Thu Jun  6 11:10:50 2019  

n-62-29-4
Host: 0

     Scratch files written to /work1/malop/qc_8385810.hnode2/qchem30176//
NAlpha2: 58
NElect   58
Mult     1

Checking the input file for inconsistencies... 	...done.

--------------------------------------------------------------
User input:
--------------------------------------------------------------
$comment
Uracil XPS O K-edge 6-311(2+,+)G** (uc)
geometry optimizion: mp2/cc-pvtz
$end

$molecule
0 1
C        0.052842   -1.701332    0.000000
H       -2.016793   -1.512231    0.000000
H       -0.025494   -2.778299    0.000000
H       -0.023568    1.988544    0.000000
C       -1.232948    0.358893    0.000000
O       -2.294123    0.950188    0.000000
C        1.274970    0.391620    0.000000
O        2.275873    1.086244    0.000000
N        0.000000    0.978006    0.000000
N       -1.137535   -1.023018    0.000000
C        1.239239   -1.061325    0.000000
H        2.169983   -1.601520    0.000000
$end

$rem
JOBTYPE SP
BASIS GENERAL
METHOD HF
n_frozen_core = 2
$end

$basis
H    0
6-311(2+,+)G**
****
O    0
S    1    1.000000
   8.58850000E+03    1.89515000E-03
S    1    1.000000
   1.29723000E+03    1.43859000E-02
S    1    1.000000
   2.99296000E+02    7.07320000E-02
S    1    1.000000
   8.73771000E+01    2.40001000E-01
S    1    1.000000
   2.56789000E+01    5.94797000E-01
S    1    1.000000
   3.74004000E+00    2.80802000E-01
SP   3    1.000000
   4.21175000E+01    1.13889000E-01   3.65114000E-02
   9.62837000E+00    9.20811000E-01   2.37153000E-01
   2.85332000E+00   -3.27447000E-03   8.19702000E-01
SP   1    1.000000
   9.05661000E-01    1.00000000E+00   1.00000000E+00
SP   1    1.000000
   2.55611000E-01    1.00000000E+00   1.00000000E+00
SP   1    1.000000
   8.45000000E-02    1.00000000E+00   1.00000000E+00
SP   1    1.000000
   2.54518072E-02    1.00000000E+00   1.00000000E+00
D    1    1.000000
   1.29200000E+00    1.00000000E+00
****
N    0
S    1    1.000000
   6.29348000E+03    1.96979000E-03
S    1    1.000000
   9.49044000E+02    1.49613000E-02
S    1    1.000000
   2.18776000E+02    7.35006000E-02
S    1    1.000000
   6.36916000E+01    2.48937000E-01
S    1    1.000000
   1.88282000E+01    6.02460000E-01
S    1    1.000000
   2.72023000E+00    2.56202000E-01
SP   3    1.000000
   3.06331000E+01    1.11906000E-01   3.83119000E-02
   7.02614000E+00    9.21666000E-01   2.37403000E-01
   2.11205000E+00   -2.56919000E-03   8.17592000E-01
SP   1    1.000000
   6.84009000E-01    1.00000000E+00   1.00000000E+00
SP   1    1.000000
   2.00878000E-01    1.00000000E+00   1.00000000E+00
SP   1    1.000000
   6.39000000E-02    1.00000000E+00   1.00000000E+00
SP   1    1.000000
   1.92469880E-02    1.00000000E+00   1.00000000E+00
D    1    1.000000
   9.13000000E-01    1.00000000E+00
****
C    0
S    1    1.000000
   4.56324000E+03    1.96665000E-03
S    1    1.000000
   6.82024000E+02    1.52306000E-02
S    1    1.000000
   1.54973000E+02    7.61269000E-02
S    1    1.000000
   4.44553000E+01    2.60801000E-01
S    1    1.000000
   1.30290000E+01    6.16462000E-01
S    1    1.000000
   1.82773000E+00    2.21006000E-01
SP   3    1.000000
   2.09642000E+01    1.14660000E-01   4.02487000E-02
   4.80331000E+00    9.19999000E-01   2.37594000E-01
   1.45933000E+00   -3.03068000E-03   8.15854000E-01
SP   1    1.000000
   4.83456000E-01    1.00000000E+00   1.00000000E+00
SP   1    1.000000
   1.45585000E-01    1.00000000E+00   1.00000000E+00
SP   1    1.000000
   4.38000000E-02    1.00000000E+00   1.00000000E+00
SP   1    1.000000
   1.31927711E-02    1.00000000E+00   1.00000000E+00
D    1    1.000000
   6.26000000E-01    1.00000000E+00
****
$end
--------------------------------------------------------------
 ----------------------------------------------------------------
             Standard Nuclear Orientation (Angstroms)
    I     Atom           X                Y                Z
 ----------------------------------------------------------------
    1      C      -0.0071423615    -1.7021374661    -0.0000000000
    2      H      -2.0688284730    -1.4402241233     0.0000000000
    3      H      -0.1233798667    -2.7756752113     0.0000000000
    4      H       0.0465189185     1.9881394681    -0.0000000000
    5      C      -1.2195356258     0.4021166886     0.0000000000
    6      O      -2.2592155329     1.0304381418     0.0000000000
    7      C       1.2879780632     0.3464493659    -0.0000000000
    8      O       2.3127366072     1.0053721559    -0.0000000000
    9      N       0.0344629504     0.9773985746    -0.0000000000
   10      N      -1.1728776526    -0.9822982369     0.0000000000
   11      C       1.2010703878    -1.1043341925    -0.0000000000
   12      H       2.1122009607    -1.6769912546    -0.0000000000
 ----------------------------------------------------------------
 Molecular Point Group                 Cs    NOp =  2
 Largest Abelian Subgroup              Cs    NOp =  2
 Nuclear Repulsion Energy =         357.01163035 hartrees
 There are       29 alpha and       29 beta electrons
 Requested basis set is non-standard
 There are 116 shells and 276 basis functions

 Total QAlloc Memory Limit   2000 MB
 Mega-Array Size       188 MB
 MEM_STATIC part       192 MB

                       Distance Matrix (Angstroms)
             C (  1)   H (  2)   H (  3)   H (  4)   C (  5)   O (  6)
   H (  2)  2.078256
   H (  3)  1.079812  2.359703
   H (  4)  3.690667  4.028445  4.766843
   C (  5)  2.428535  2.028674  3.361535  2.029375
   O (  6)  3.541017  2.477987  4.364435  2.496718  1.214793
   C (  7)  2.423643  3.802677  3.426309  2.058244  2.508132  3.612537
   O (  8)  3.565452  5.017873  4.497886  2.470136  3.583415  4.572021
   N (  9)  2.679859  3.204487  3.756392  1.010813  1.379660  2.294292
   N ( 10)  1.370076  1.006193  2.077895  3.210986  1.385201  2.287190
   C ( 11)  1.348016  3.287105  2.132498  3.300967  2.851092  4.065813
   H ( 12)  2.119492  4.187728  2.490969  4.207164  3.927233  5.141931
             C (  7)   O (  8)   N (  9)   N ( 10)   C ( 11)
   O (  8)  1.218322
   N (  9)  1.403352  2.278445
   N ( 10)  2.796673  4.012523  2.301756
   C ( 11)  1.453384  2.384672  2.386333  2.377083
   H ( 12)  2.184870  2.689849  3.370872  3.357728  1.076148

 A cutoff of  1.0D-08 yielded   5065 shell pairs
 There are     33838 function pairs (     35835 Cartesian)
 Smallest overlap matrix eigenvalue = 2.79E-07

 Q-Chem warning in module stvman/mkSTV.C, line 318:

 Overlap eigenvalue is smaller than square root of threshold
 Use THRESH >= 12 to get rid of this warning

 Linear dependence detected in AO basis
 Tighter screening thresholds may be required for diffuse basis sets
 Use S2THRESH > 14 and THRESH = 14 in case of SCF convergence issues
 Number of orthogonalized atomic orbitals = 274
 Maximum deviation from orthogonality = 1.662E-10

 Scale SEOQF with 1.000000e-01/1.000000e-01/1.000000e-01

 Standard Electronic Orientation quadrupole field applied
 Nucleus-field energy     =     0.0000000098 hartrees
 Guess MOs from core Hamiltonian diagonalization

 -----------------------------------------------------------------------
  General SCF calculation program by
  Eric Jon Sundstrom, Paul Horn, Yuezhi Mao, Dmitri Zuev, Alec White,
  David Stuck, Shaama M.S., Shane Yost, Joonho Lee, David Small,
  Daniel Levine, Susi Lehtola, Hugh Burton, Evgeny Epifanovsky
 -----------------------------------------------------------------------
 Hartree-Fock
 using 4 threads for integral computing
 -------------------------------------------------------
 OpenMP Integral computing Module                
 Release: version 2.0, May 2017, Q-Chem Inc. Pleasanton 
 -------------------------------------------------------
 A restricted SCF calculation will be
 performed using DIIS
 SCF converges when DIIS error is below 1.0e-05
 ---------------------------------------
  Cycle       Energy         DIIS error
 ---------------------------------------
    1    -317.6975961559      1.18e-01  
    2    -296.6532621455      6.20e-02  
    3    -298.4315755378      7.94e-02  
    4    -386.6508335264      4.37e-02  
    5    -406.3538014785      2.27e-02  
    6    -409.8815602057      1.65e-02  
    7    -412.4527302652      2.86e-03  
    8    -412.5540541341      1.08e-03  
    9    -412.5713949428      6.06e-04  
   10    -412.5782827419      2.50e-04  
   11    -412.5798892808      1.35e-04  
   12    -412.5802385756      5.44e-05  
   13    -412.5803257112      2.02e-05  
   14    -412.5803327738      6.00e-06  Convergence criterion met
 ---------------------------------------
 SCF time:   CPU 88.53s  wall 23.00s 
 SCF   energy in the final basis set =     -412.5803327738
 Total energy in the final basis set =     -412.5803327738

 --------------------------------------------------------------
             Orbital Energies (a.u.) and Symmetries
 --------------------------------------------------------------

 Alpha MOs, Restricted
 -- Occupied --                  
-20.550 -20.545 -15.649 -15.632 -11.427 -11.388 -11.346 -11.261
  1 A'    2 A'    3 A'    4 A'    5 A'    6 A'    7 A'    8 A'                 
 -1.442  -1.404  -1.319  -1.250  -1.093  -0.938  -0.906  -0.812
  9 A'   10 A'   11 A'   12 A'   13 A'   14 A'   15 A'   16 A'                 
 -0.770  -0.718  -0.681  -0.671  -0.657  -0.619  -0.605  -0.573
 17 A'   18 A'   19 A'    1 A"   20 A'   21 A'   22 A'    2 A"                 
 -0.528  -0.487  -0.452  -0.438  -0.371
  3 A"   23 A'   24 A'    4 A"    5 A"                                         
 -- Virtual --                   
  0.005   0.019   0.020   0.022   0.031   0.033   0.035   0.036
 25 A'   26 A'    6 A"   27 A'   28 A'   29 A'   30 A'    7 A"                 
  0.038   0.046   0.047   0.049   0.053   0.054   0.055   0.068
  8 A"   31 A'   32 A'   33 A'   34 A'    9 A"   35 A'   36 A'                 
  0.072   0.072   0.079   0.085   0.086   0.088   0.095   0.097
 10 A"   37 A'   11 A"   38 A'   12 A"   39 A'   40 A'   41 A'                 
  0.112   0.116   0.118   0.120   0.127   0.131   0.134   0.137
 13 A"   14 A"   42 A'   43 A'   44 A'   45 A'   46 A'   47 A'                 
  0.138   0.155   0.162   0.164   0.172   0.184   0.189   0.195
 48 A'   15 A"   49 A'   50 A'   16 A"   51 A'   17 A"   52 A'                 
  0.209   0.210   0.224   0.230   0.235   0.241   0.243   0.260
 53 A'   18 A"   54 A'   55 A'   56 A'   19 A"   57 A'   58 A'                 
  0.266   0.270   0.278   0.279   0.286   0.296   0.300   0.333
 59 A'   60 A'   20 A"   61 A'   62 A'   21 A"   63 A'   22 A"                 
  0.333   0.347   0.373   0.388   0.391   0.405   0.410   0.410
 64 A'   65 A'   66 A'   67 A'   68 A'   69 A'   23 A"   70 A'                 
  0.420   0.422   0.441   0.449   0.455   0.463   0.481   0.482
 24 A"   71 A'   72 A'   73 A'   74 A'   75 A'   76 A'   77 A'                 
  0.505   0.529   0.545   0.558   0.615   0.630   0.655   0.706
 78 A'   79 A'   80 A'   81 A'   82 A'   83 A'   84 A'   85 A'                 
  0.734   0.740   0.761   0.776   0.778   0.799   0.822   0.824
 86 A'   25 A"   87 A'   26 A"   88 A'   27 A"   28 A"   89 A'                 
  0.878   0.888   0.938   0.963   0.971   0.979   1.008   1.015
 90 A'   91 A'   92 A'   93 A'   94 A'   95 A'   96 A'   97 A'                 
  1.029   1.042   1.061   1.093   1.100   1.114   1.159   1.227
 98 A'   29 A"   99 A'   30 A"  100 A'  101 A'  102 A'   31 A"                 
  1.242   1.245   1.270   1.301   1.368   1.370   1.393   1.406
 32 A"  103 A'  104 A'  105 A'  106 A'   33 A"   34 A"   35 A"                 
  1.421   1.441   1.460   1.464   1.513   1.515   1.543   1.557
 36 A"  107 A'  108 A'   37 A"   38 A"  109 A'  110 A'  111 A'                 
  1.583   1.760   1.777   1.803   1.814   1.877   1.899   1.915
112 A'  113 A'  114 A'  115 A'   39 A"  116 A'   40 A"  117 A'                 
  1.929   1.952   1.980   2.013   2.014   2.067   2.124   2.143
 41 A"  118 A'  119 A'   42 A"  120 A'  121 A'  122 A'  123 A'                 
  2.186   2.223   2.236   2.283   2.299   2.339   2.357   2.532
124 A'   43 A"  125 A'  126 A'  127 A'   44 A"  128 A'  129 A'                 
  2.566   2.589   2.643   2.668   2.728   2.807   2.822   2.851
 45 A"  130 A'   46 A"  131 A'   47 A"  132 A'   48 A"  133 A'                 
  2.932   2.957   3.006   3.019   3.048   3.094   3.168   3.181
134 A'  135 A'  136 A'  137 A'  138 A'   49 A"   50 A"  139 A'                 
  3.184   3.211   3.263   3.271   3.297   3.310   3.325   3.347
 51 A"  140 A'   52 A"  141 A'  142 A'   53 A"  143 A'   54 A"                 
  3.401   3.515   3.588   3.756   3.767   3.819   3.840   3.876
144 A'  145 A'  146 A'   55 A"   56 A"  147 A'  148 A'  149 A'                 
  3.914   3.959   4.017   4.049   4.106   4.288   4.305   4.364
150 A'  151 A'  152 A'  153 A'  154 A'  155 A'   57 A"   58 A"                 
  4.411   4.485   4.605   5.012   5.158   5.288   5.441   5.553
156 A'  157 A'  158 A'  159 A'  160 A'  161 A'  162 A'  163 A'                 
  5.625   5.633   5.690   5.713   5.783   5.864   5.902   6.438
 59 A"   60 A"  164 A'  165 A'  166 A'  167 A'  168 A'  169 A'                 
  6.445   7.668   7.729   9.888   9.934  20.639  20.695  20.726
170 A'  171 A'  172 A'  173 A'  174 A'  175 A'  176 A'  177 A'                 
 20.897  30.195  30.235  40.894  40.936  80.190  80.235  80.273
178 A'  179 A'  180 A'  181 A'  182 A'  183 A'  184 A'  185 A'                 
 80.428 116.314 116.350 159.240 159.273 322.013 322.053 322.094
186 A'  187 A'  188 A'  189 A'  190 A'  191 A'  192 A'  193 A'                 
322.233 460.413 460.445 631.938 631.9651431.5641431.6041431.646
194 A'  195 A'  196 A'  197 A'  198 A'  199 A'  200 A'  201 A'                 
*******2012.8872012.9162759.3342759.3578749.7838749.8248749.866
202 A'  203 A'  204 A'  205 A'  206 A'  207 A'  208 A'  209 A'                 
***************************************
210 A'  211 A'  212 A'  213 A'  214 A'                                         

 Beta MOs, Restricted
 -- Occupied --                  
-20.550 -20.545 -15.649 -15.632 -11.427 -11.388 -11.346 -11.261
  1 A'    2 A'    3 A'    4 A'    5 A'    6 A'    7 A'    8 A'                 
 -1.442  -1.404  -1.319  -1.250  -1.093  -0.938  -0.906  -0.812
  9 A'   10 A'   11 A'   12 A'   13 A'   14 A'   15 A'   16 A'                 
 -0.770  -0.718  -0.681  -0.671  -0.657  -0.619  -0.605  -0.573
 17 A'   18 A'   19 A'    1 A"   20 A'   21 A'   22 A'    2 A"                 
 -0.528  -0.487  -0.452  -0.438  -0.371
  3 A"   23 A'   24 A'    4 A"    5 A"                                         
 -- Virtual --                   
  0.005   0.019   0.020   0.022   0.031   0.033   0.035   0.036
 25 A'   26 A'    6 A"   27 A'   28 A'   29 A'   30 A'    7 A"                 
  0.038   0.046   0.047   0.049   0.053   0.054   0.055   0.068
  8 A"   31 A'   32 A'   33 A'   34 A'    9 A"   35 A'   36 A'                 
  0.072   0.072   0.079   0.085   0.086   0.088   0.095   0.097
 10 A"   37 A'   11 A"   38 A'   12 A"   39 A'   40 A'   41 A'                 
  0.112   0.116   0.118   0.120   0.127   0.131   0.134   0.137
 13 A"   14 A"   42 A'   43 A'   44 A'   45 A'   46 A'   47 A'                 
  0.138   0.155   0.162   0.164   0.172   0.184   0.189   0.195
 48 A'   15 A"   49 A'   50 A'   16 A"   51 A'   17 A"   52 A'                 
  0.209   0.210   0.224   0.230   0.235   0.241   0.243   0.260
 53 A'   18 A"   54 A'   55 A'   56 A'   19 A"   57 A'   58 A'                 
  0.266   0.270   0.278   0.279   0.286   0.296   0.300   0.333
 59 A'   60 A'   20 A"   61 A'   62 A'   21 A"   63 A'   22 A"                 
  0.333   0.347   0.373   0.388   0.391   0.405   0.410   0.410
 64 A'   65 A'   66 A'   67 A'   68 A'   69 A'   23 A"   70 A'                 
  0.420   0.422   0.441   0.449   0.455   0.463   0.481   0.482
 24 A"   71 A'   72 A'   73 A'   74 A'   75 A'   76 A'   77 A'                 
  0.505   0.529   0.545   0.558   0.615   0.630   0.655   0.706
 78 A'   79 A'   80 A'   81 A'   82 A'   83 A'   84 A'   85 A'                 
  0.734   0.740   0.761   0.776   0.778   0.799   0.822   0.824
 86 A'   25 A"   87 A'   26 A"   88 A'   27 A"   28 A"   89 A'                 
  0.878   0.888   0.938   0.963   0.971   0.979   1.008   1.015
 90 A'   91 A'   92 A'   93 A'   94 A'   95 A'   96 A'   97 A'                 
  1.029   1.042   1.061   1.093   1.100   1.114   1.159   1.227
 98 A'   29 A"   99 A'   30 A"  100 A'  101 A'  102 A'   31 A"                 
  1.242   1.245   1.270   1.301   1.368   1.370   1.393   1.406
 32 A"  103 A'  104 A'  105 A'  106 A'   33 A"   34 A"   35 A"                 
  1.421   1.441   1.460   1.464   1.513   1.515   1.543   1.557
 36 A"  107 A'  108 A'   37 A"   38 A"  109 A'  110 A'  111 A'                 
  1.583   1.760   1.777   1.803   1.814   1.877   1.899   1.915
112 A'  113 A'  114 A'  115 A'   39 A"  116 A'   40 A"  117 A'                 
  1.929   1.952   1.980   2.013   2.014   2.067   2.124   2.143
 41 A"  118 A'  119 A'   42 A"  120 A'  121 A'  122 A'  123 A'                 
  2.186   2.223   2.236   2.283   2.299   2.339   2.357   2.532
124 A'   43 A"  125 A'  126 A'  127 A'   44 A"  128 A'  129 A'                 
  2.566   2.589   2.643   2.668   2.728   2.807   2.822   2.851
 45 A"  130 A'   46 A"  131 A'   47 A"  132 A'   48 A"  133 A'                 
  2.932   2.957   3.006   3.019   3.048   3.094   3.168   3.181
134 A'  135 A'  136 A'  137 A'  138 A'   49 A"   50 A"  139 A'                 
  3.184   3.211   3.263   3.271   3.297   3.310   3.325   3.347
 51 A"  140 A'   52 A"  141 A'  142 A'   53 A"  143 A'   54 A"                 
  3.401   3.515   3.588   3.756   3.767   3.819   3.840   3.876
144 A'  145 A'  146 A'   55 A"   56 A"  147 A'  148 A'  149 A'                 
  3.914   3.959   4.017   4.049   4.106   4.288   4.305   4.364
150 A'  151 A'  152 A'  153 A'  154 A'  155 A'   57 A"   58 A"                 
  4.411   4.485   4.605   5.012   5.158   5.288   5.441   5.553
156 A'  157 A'  158 A'  159 A'  160 A'  161 A'  162 A'  163 A'                 
  5.625   5.633   5.690   5.713   5.783   5.864   5.902   6.438
 59 A"   60 A"  164 A'  165 A'  166 A'  167 A'  168 A'  169 A'                 
  6.445   7.668   7.729   9.888   9.934  20.639  20.695  20.726
170 A'  171 A'  172 A'  173 A'  174 A'  175 A'  176 A'  177 A'                 
 20.897  30.195  30.235  40.894  40.936  80.190  80.235  80.273
178 A'  179 A'  180 A'  181 A'  182 A'  183 A'  184 A'  185 A'                 
 80.428 116.314 116.350 159.240 159.273 322.013 322.053 322.094
186 A'  187 A'  188 A'  189 A'  190 A'  191 A'  192 A'  193 A'                 
322.233 460.413 460.445 631.938 631.9651431.5641431.6041431.646
194 A'  195 A'  196 A'  197 A'  198 A'  199 A'  200 A'  201 A'                 
*******2012.8872012.9162759.3342759.3578749.7838749.8248749.866
202 A'  203 A'  204 A'  205 A'  206 A'  207 A'  208 A'  209 A'                 
***************************************
210 A'  211 A'  212 A'  213 A'  214 A'                                         
 --------------------------------------------------------------

          Ground-State Mulliken Net Atomic Charges

     Atom                 Charge (a.u.)
  ----------------------------------------
      1 C                     0.041962
      2 H                     0.361938
      3 H                     0.164085
      4 H                     0.395021
      5 C                     0.244778
      6 O                    -0.078939
      7 C                     0.021847
      8 O                    -0.117989
      9 N                    -0.604087
     10 N                    -0.410817
     11 C                    -0.261783
     12 H                     0.243984
  ----------------------------------------
  Sum of atomic charges =     0.000000

 -----------------------------------------------------------------
                    Cartesian Multipole Moments
 -----------------------------------------------------------------
    Charge (ESU x 10^10)
                 0.0000
    Dipole Moment (Debye)
         X      -1.3823      Y      -4.9563      Z       0.0000
       Tot       5.1454
    Quadrupole Moments (Debye-Ang)
        XX     -60.6810     XY       2.5048     YY     -38.3412
        XZ      -0.0000     YZ       0.0000     ZZ     -46.9505
    Octopole Moments (Debye-Ang^2)
       XXX     -11.3535    XXY     -34.8415    XYY      -5.2027
       YYY      -9.0742    XXZ       0.0000    XYZ       0.0000
       YYZ       0.0000    XZZ      -1.9199    YZZ       4.3262
       ZZZ       0.0000
    Hexadecapole Moments (Debye-Ang^3)
      XXXX    -728.3306   XXXY      12.7357   XXYY    -177.0130
      XYYY      13.2601   YYYY    -304.4779   XXXZ       0.0000
      XXYZ       0.0000   XYYZ      -0.0000   YYYZ       0.0000
      XXZZ    -114.2378   XYZZ       2.9668   YYZZ     -75.7697
      XZZZ      -0.0000   YZZZ       0.0000   ZZZZ     -46.9997
 -----------------------------------------------------------------
Archival summary:
1\1\n-62-29-4\SP\HF\BasisUnspecified\2244\malop\ThuJun611:11:142019ThuJun611:11:142019\0\\#,HF,BasisUnspecified,\\0,1\N\H,1,1.01081\C,1,1.37966,2,115.327\O,3,1.21479,1,124.21,2,0,0\N,3,1.3852,1,112.713,2,180,0\H,5,1.00619,3,115.142,1,-180,0\C,5,1.37008,3,123.626,1,-0,0\H,7,1.07981,5,115.516,3,180,0\C,7,1.34802,5,121.979,3,-0,0\H,9,1.07615,7,121.525,5,-180,0\C,1,1.40335,2,116.035,3,-180,0\O,11,1.21832,1,120.541,2,0,0\\HF=-412.580333\\@

 Total job time:  23.95s(wall), 88.94s(cpu) 
 Thu Jun  6 11:11:14 2019

        *************************************************************
        *                                                           *
        *  Thank you very much for using Q-Chem.  Have a nice day.  *
        *                                                           *
        *************************************************************


 
User input: 2 of 2 
 
                  Welcome to Q-Chem
     A Quantum Leap Into The Future Of Chemistry


 Q-Chem 5.2 (devel), Q-Chem, Inc., Pleasanton, CA (2019)

 Yihan Shao,  Zhengting Gan,  E. Epifanovsky,  A. T. B. Gilbert,  M. Wormit,  
 J. Kussmann,  A. W. Lange,  A. Behn,  Jia Deng,  Xintian Feng,  D. Ghosh,  
 M. Goldey,  P. R. Horn,  L. D. Jacobson,  I. Kaliman,  T. Kus,  A. Landau,  
 Jie Liu,  E. I. Proynov,  R. M. Richard,  R. P. Steele,  E. J. Sundstrom,  
 H. L. Woodcock III,  P. M. Zimmerman,  D. Zuev,  B. Albrecht,  E. Alguire,  
 S. A. Baeppler,  D. Barton,  Z. Benda,  Y. A. Bernard,  E. J. Berquist,  
 K. B. Bravaya,  H. Burton,  D. Casanova,  Chun-Min Chang,  Yunqing Chen,  
 A. Chien,  K. D. Closser,  M. P. Coons,  S. Coriani,  S. Dasgupta,  
 A. L. Dempwolff,  M. Diedenhofen,  Hainam Do,  R. G. Edgar,  Po-Tung Fang,  
 S. Faraji,  S. Fatehi,  Qingguo Feng,  K. D. Fenk,  J. Fosso-Tande,  
 J. Gayvert,  Qinghui Ge,  A. Ghysels,  G. Gidofalvi,  J. Gomes,  
 J. Gonthier,  A. Gunina,  D. Hait,  M. W. D. Hanson-Heine,  
 P. H. P. Harbach,  A. W. Hauser,  M. F. Herbst,  J. E. Herr,  
 E. G. Hohenstein,  Z. C. Holden,  Kerwin Hui,  B. C. Huynh,  T.-C. Jagau,  
 Hyunjun Ji,  B. Kaduk,  K. Khistyaev,  Jaehoon Kim,  P. Klunzinger,  K. Koh,  
 D. Kosenkov,  L. Koulias,  T. Kowalczyk,  C. M. Krauter,  A. Kunitsa,  
 Ka Un Lao,  A. Laurent,  K. V. Lawler,  Joonho Lee,  D. Lefrancois,  
 S. Lehtola,  D. S. Levine,  Yi-Pei Li,  You-Sheng Lin,  Fenglai Liu,  
 E. Livshits,  A. Luenser,  P. Manohar,  E. Mansoor,  S. F. Manzer,  
 Shan-Ping Mao,  Yuezhi Mao,  N. Mardirossian,  A. V. Marenich,  
 T. Markovich,  L. A. Martinez-Martinez,  S. A. Maurer,  N. J. Mayhall,  
 S. C. McKenzie,  J.-M. Mewes,  P. Morgante,  A. F. Morrison,  
 J. W. Mullinax,  K. Nanda,  T. S. Nguyen-Beck,  R. Olivares-Amaya,  
 J. A. Parkhill,  Zheng Pei,  T. M. Perrine,  F. Plasser,  P. Pokhilko,  
 S. Prager,  A. Prociuk,  E. Ramos,  D. R. Rehn,  F. Rob,  M. Scheurer,  
 M. Schneider,  N. Sergueev,  S. M. Sharada,  S. Sharma,  D. W. Small,  
 T. Stauch,  T. Stein,  Yu-Chuan Su,  A. J. W. Thom,  A. Tkatchenko,  
 T. Tsuchimochi,  N. M. Tubman,  L. Vogt,  M. L. Vidal,  O. Vydrov,  
 M. A. Watson,  J. Wenzel,  M. de Wergifosse,  T. A. Wesolowski,  A. White,  
 J. Witte,  A. Yamada,  Jun Yang,  K. Yao,  S. Yeganeh,  S. R. Yost,  
 Zhi-Qiang You,  A. Zech,  Igor Ying Zhang,  Xing Zhang,  Yan Zhao,  
 Ying Zhu,  B. R. Brooks,  G. K. L. Chan,  C. J. Cramer,  M. S. Gordon,  
 W. J. Hehre,  A. Klamt,  M. W. Schmidt,  C. D. Sherrill,  D. G. Truhlar,  
 A. Aspuru-Guzik,  R. Baer,  A. T. Bell,  N. A. Besley,  Jeng-Da Chai,  
 A. E. DePrince, III,  R. A. DiStasio Jr.,  A. Dreuw,  B. D. Dunietz,  
 T. R. Furlani,  Chao-Ping Hsu,  Yousung Jung,  Jing Kong,  D. S. Lambrecht,  
 WanZhen Liang,  C. Ochsenfeld,  V. A. Rassolov,  L. V. Slipchenko,  
 J. E. Subotnik,  T. Van Voorhis,  J. M. Herbert,  A. I. Krylov,  
 P. M. W. Gill,  M. Head-Gordon

 Contributors to earlier versions of Q-Chem not listed above: 
 R. D. Adamson,  B. Austin,  J. Baker,  G. J. O. Beran,  K. Brandhorst,  
 S. T. Brown,  E. F. C. Byrd,  A. K. Chakraborty,  C.-L. Cheng,  
 Siu Hung Chien,  D. M. Chipman,  D. L. Crittenden,  H. Dachsel,  
 R. J. Doerksen,  A. D. Dutoi,  L. Fusti-Molnar,  W. A. Goddard III,  
 A. Golubeva-Zadorozhnaya,  S. R. Gwaltney,  G. Hawkins,  A. Heyden,  
 S. Hirata,  G. Kedziora,  F. J. Keil,  C. Kelley,  Jihan Kim,  R. A. King,  
 R. Z. Khaliullin,  P. P. Korambath,  W. Kurlancheek,  A. M. Lee,  M. S. Lee,  
 S. V. Levchenko,  Ching Yeh Lin,  D. Liotard,  R. C. Lochan,  I. Lotan,  
 P. E. Maslen,  N. Nair,  D. P. O'Neill,  D. Neuhauser,  E. Neuscamman,  
 C. M. Oana,  R. Olson,  B. Peters,  R. Peverati,  P. A. Pieniazek,  
 Y. M. Rhee,  J. Ritchie,  M. A. Rohrdanz,  E. Rosta,  N. J. Russ,  
 H. F. Schaefer III,  N. E. Schultz,  N. Shenvi,  A. C. Simmonett,  A. Sodt,  
 D. Stuck,  K. S. Thanthiriwatte,  V. Vanovschi,  Tao Wang,  A. Warshel,  
 C. F. Williams,  Q. Wu,  X. Xu,  W. Zhang

 Please cite Q-Chem as follows:
 Y. Shao et al., Mol. Phys. 113, 184-215 (2015)
 DOI: 10.1080/00268976.2014.952696

 Q-Chem 5.2.0 for Intel X86 EM64T Linux

 Parts of Q-Chem use Armadillo 8.300.2 (Tropical Shenanigans).
 http://arma.sourceforge.net/

 Q-Chem begins on Thu Jun  6 11:11:15 2019  

n-62-29-4
Host: 0

     Scratch files written to /work1/malop/qc_8385810.hnode2/qchem30176//
NAlpha2: 60
NElect   58
Mult     3

Checking the input file for inconsistencies... 	...done.

--------------------------------------------------------------
User input:
--------------------------------------------------------------

$molecule
0 3
C        0.052842   -1.701332    0.000000
H       -2.016793   -1.512231    0.000000
H       -0.025494   -2.778299    0.000000
H       -0.023568    1.988544    0.000000
C       -1.232948    0.358893    0.000000
O       -2.294123    0.950188    0.000000
C        1.274970    0.391620    0.000000
O        2.275873    1.086244    0.000000
N        0.000000    0.978006    0.000000
N       -1.137535   -1.023018    0.000000
C        1.239239   -1.061325    0.000000
H        2.169983   -1.601520    0.000000
$end

$rem
   JOB_TYPE  =  SP
   BASIS  = general
   print_general_basis = true
   SCF_GUESS read
   mom_start = 1
   METHOD  =  EOM-CCSD
   CVS_IP_STATES = [2,0]
   !eom_davidson_convergence = 4
   cvs_eom_shift = 19500
   n_frozen_core = fc
   cc_trans_prop = true
   cc_memory = 40000
   cc_do_dyson = true
   MOLDEN_FORMAT = TRUE
$end

$basis
H    0
6-311(2+,+)G**
****
O    0
S    1    1.000000
   8.58850000E+03    1.89515000E-03
S    1    1.000000
   1.29723000E+03    1.43859000E-02
S    1    1.000000
   2.99296000E+02    7.07320000E-02
S    1    1.000000
   8.73771000E+01    2.40001000E-01
S    1    1.000000
   2.56789000E+01    5.94797000E-01
S    1    1.000000
   3.74004000E+00    2.80802000E-01
SP   3    1.000000
   4.21175000E+01    1.13889000E-01   3.65114000E-02
   9.62837000E+00    9.20811000E-01   2.37153000E-01
   2.85332000E+00   -3.27447000E-03   8.19702000E-01
SP   1    1.000000
   9.05661000E-01    1.00000000E+00   1.00000000E+00
SP   1    1.000000
   2.55611000E-01    1.00000000E+00   1.00000000E+00
SP   1    1.000000
   8.45000000E-02    1.00000000E+00   1.00000000E+00
SP   1    1.000000
   2.54518072E-02    1.00000000E+00   1.00000000E+00
D    1    1.000000
   1.29200000E+00    1.00000000E+00
****
N    0
S    1    1.000000
   6.29348000E+03    1.96979000E-03
S    1    1.000000
   9.49044000E+02    1.49613000E-02
S    1    1.000000
   2.18776000E+02    7.35006000E-02
S    1    1.000000
   6.36916000E+01    2.48937000E-01
S    1    1.000000
   1.88282000E+01    6.02460000E-01
S    1    1.000000
   2.72023000E+00    2.56202000E-01
SP   3    1.000000
   3.06331000E+01    1.11906000E-01   3.83119000E-02
   7.02614000E+00    9.21666000E-01   2.37403000E-01
   2.11205000E+00   -2.56919000E-03   8.17592000E-01
SP   1    1.000000
   6.84009000E-01    1.00000000E+00   1.00000000E+00
SP   1    1.000000
   2.00878000E-01    1.00000000E+00   1.00000000E+00
SP   1    1.000000
   6.39000000E-02    1.00000000E+00   1.00000000E+00
SP   1    1.000000
   1.92469880E-02    1.00000000E+00   1.00000000E+00
D    1    1.000000
   9.13000000E-01    1.00000000E+00
****
C    0
S    1    1.000000
   4.56324000E+03    1.96665000E-03
S    1    1.000000
   6.82024000E+02    1.52306000E-02
S    1    1.000000
   1.54973000E+02    7.61269000E-02
S    1    1.000000
   4.44553000E+01    2.60801000E-01
S    1    1.000000
   1.30290000E+01    6.16462000E-01
S    1    1.000000
   1.82773000E+00    2.21006000E-01
SP   3    1.000000
   2.09642000E+01    1.14660000E-01   4.02487000E-02
   4.80331000E+00    9.19999000E-01   2.37594000E-01
   1.45933000E+00   -3.03068000E-03   8.15854000E-01
SP   1    1.000000
   4.83456000E-01    1.00000000E+00   1.00000000E+00
SP   1    1.000000
   1.45585000E-01    1.00000000E+00   1.00000000E+00
SP   1    1.000000
   4.38000000E-02    1.00000000E+00   1.00000000E+00
SP   1    1.000000
   1.31927711E-02    1.00000000E+00   1.00000000E+00
D    1    1.000000
   6.26000000E-01    1.00000000E+00
****
$end
--------------------------------------------------------------
 ----------------------------------------------------------------
             Standard Nuclear Orientation (Angstroms)
    I     Atom           X                Y                Z
 ----------------------------------------------------------------
    1      C      -0.0071423615    -1.7021374661    -0.0000000000
    2      H      -2.0688284730    -1.4402241233     0.0000000000
    3      H      -0.1233798667    -2.7756752113     0.0000000000
    4      H       0.0465189185     1.9881394681    -0.0000000000
    5      C      -1.2195356258     0.4021166886     0.0000000000
    6      O      -2.2592155329     1.0304381418     0.0000000000
    7      C       1.2879780632     0.3464493659    -0.0000000000
    8      O       2.3127366072     1.0053721559    -0.0000000000
    9      N       0.0344629504     0.9773985746    -0.0000000000
   10      N      -1.1728776526    -0.9822982369     0.0000000000
   11      C       1.2010703878    -1.1043341925    -0.0000000000
   12      H       2.1122009607    -1.6769912546    -0.0000000000
 ----------------------------------------------------------------
 Molecular Point Group                 Cs    NOp =  2
 Largest Abelian Subgroup              Cs    NOp =  2
 Nuclear Repulsion Energy =         357.01163035 hartrees
 There are       30 alpha and       28 beta electrons
 Requested basis set is non-standard
Basis set in general basis input format:
-----------------------------------------------------------------------
$basis
C    0
S    1    1.000000
   4.56324000E+03    1.96665000E-03 
S    1    1.000000
   6.82024000E+02    1.52306000E-02 
S    1    1.000000
   1.54973000E+02    7.61269000E-02 
S    1    1.000000
   4.44553000E+01    2.60801000E-01 
S    1    1.000000
   1.30290000E+01    6.16462000E-01 
S    1    1.000000
   1.82773000E+00    2.21006000E-01 
SP   3    1.000000
   2.09642000E+01    1.14660000E-01   4.02487000E-02 
   4.80331000E+00    9.19999000E-01   2.37594000E-01 
   1.45933000E+00   -3.03068000E-03   8.15854000E-01 
SP   1    1.000000
   4.83456000E-01    1.00000000E+00   1.00000000E+00 
SP   1    1.000000
   1.45585000E-01    1.00000000E+00   1.00000000E+00 
SP   1    1.000000
   4.38000000E-02    1.00000000E+00   1.00000000E+00 
SP   1    1.000000
   1.31927711E-02    1.00000000E+00   1.00000000E+00 
D    1    1.000000
   6.26000000E-01    1.00000000E+00 
****
H    0
S    3    1.000000
   3.38650000E+01    2.54938000E-02 
   5.09479000E+00    1.90373000E-01 
   1.15879000E+00    8.52161000E-01 
S    1    1.000000
   3.25840000E-01    1.00000000E+00 
S    1    1.000000
   1.02741000E-01    1.00000000E+00 
S    1    1.000000
   3.60000000E-02    1.00000000E+00 
P    1    1.000000
   7.50000000E-01    1.00000000E+00 
****
H    0
S    3    1.000000
   3.38650000E+01    2.54938000E-02 
   5.09479000E+00    1.90373000E-01 
   1.15879000E+00    8.52161000E-01 
S    1    1.000000
   3.25840000E-01    1.00000000E+00 
S    1    1.000000
   1.02741000E-01    1.00000000E+00 
S    1    1.000000
   3.60000000E-02    1.00000000E+00 
P    1    1.000000
   7.50000000E-01    1.00000000E+00 
****
H    0
S    3    1.000000
   3.38650000E+01    2.54938000E-02 
   5.09479000E+00    1.90373000E-01 
   1.15879000E+00    8.52161000E-01 
S    1    1.000000
   3.25840000E-01    1.00000000E+00 
S    1    1.000000
   1.02741000E-01    1.00000000E+00 
S    1    1.000000
   3.60000000E-02    1.00000000E+00 
P    1    1.000000
   7.50000000E-01    1.00000000E+00 
****
C    0
S    1    1.000000
   4.56324000E+03    1.96665000E-03 
S    1    1.000000
   6.82024000E+02    1.52306000E-02 
S    1    1.000000
   1.54973000E+02    7.61269000E-02 
S    1    1.000000
   4.44553000E+01    2.60801000E-01 
S    1    1.000000
   1.30290000E+01    6.16462000E-01 
S    1    1.000000
   1.82773000E+00    2.21006000E-01 
SP   3    1.000000
   2.09642000E+01    1.14660000E-01   4.02487000E-02 
   4.80331000E+00    9.19999000E-01   2.37594000E-01 
   1.45933000E+00   -3.03068000E-03   8.15854000E-01 
SP   1    1.000000
   4.83456000E-01    1.00000000E+00   1.00000000E+00 
SP   1    1.000000
   1.45585000E-01    1.00000000E+00   1.00000000E+00 
SP   1    1.000000
   4.38000000E-02    1.00000000E+00   1.00000000E+00 
SP   1    1.000000
   1.31927711E-02    1.00000000E+00   1.00000000E+00 
D    1    1.000000
   6.26000000E-01    1.00000000E+00 
****
O    0
S    1    1.000000
   8.58850000E+03    1.89515000E-03 
S    1    1.000000
   1.29723000E+03    1.43859000E-02 
S    1    1.000000
   2.99296000E+02    7.07320000E-02 
S    1    1.000000
   8.73771000E+01    2.40001000E-01 
S    1    1.000000
   2.56789000E+01    5.94797000E-01 
S    1    1.000000
   3.74004000E+00    2.80802000E-01 
SP   3    1.000000
   4.21175000E+01    1.13889000E-01   3.65114000E-02 
   9.62837000E+00    9.20811000E-01   2.37153000E-01 
   2.85332000E+00   -3.27447000E-03   8.19702000E-01 
SP   1    1.000000
   9.05661000E-01    1.00000000E+00   1.00000000E+00 
SP   1    1.000000
   2.55611000E-01    1.00000000E+00   1.00000000E+00 
SP   1    1.000000
   8.45000000E-02    1.00000000E+00   1.00000000E+00 
SP   1    1.000000
   2.54518072E-02    1.00000000E+00   1.00000000E+00 
D    1    1.000000
   1.29200000E+00    1.00000000E+00 
****
C    0
S    1    1.000000
   4.56324000E+03    1.96665000E-03 
S    1    1.000000
   6.82024000E+02    1.52306000E-02 
S    1    1.000000
   1.54973000E+02    7.61269000E-02 
S    1    1.000000
   4.44553000E+01    2.60801000E-01 
S    1    1.000000
   1.30290000E+01    6.16462000E-01 
S    1    1.000000
   1.82773000E+00    2.21006000E-01 
SP   3    1.000000
   2.09642000E+01    1.14660000E-01   4.02487000E-02 
   4.80331000E+00    9.19999000E-01   2.37594000E-01 
   1.45933000E+00   -3.03068000E-03   8.15854000E-01 
SP   1    1.000000
   4.83456000E-01    1.00000000E+00   1.00000000E+00 
SP   1    1.000000
   1.45585000E-01    1.00000000E+00   1.00000000E+00 
SP   1    1.000000
   4.38000000E-02    1.00000000E+00   1.00000000E+00 
SP   1    1.000000
   1.31927711E-02    1.00000000E+00   1.00000000E+00 
D    1    1.000000
   6.26000000E-01    1.00000000E+00 
****
O    0
S    1    1.000000
   8.58850000E+03    1.89515000E-03 
S    1    1.000000
   1.29723000E+03    1.43859000E-02 
S    1    1.000000
   2.99296000E+02    7.07320000E-02 
S    1    1.000000
   8.73771000E+01    2.40001000E-01 
S    1    1.000000
   2.56789000E+01    5.94797000E-01 
S    1    1.000000
   3.74004000E+00    2.80802000E-01 
SP   3    1.000000
   4.21175000E+01    1.13889000E-01   3.65114000E-02 
   9.62837000E+00    9.20811000E-01   2.37153000E-01 
   2.85332000E+00   -3.27447000E-03   8.19702000E-01 
SP   1    1.000000
   9.05661000E-01    1.00000000E+00   1.00000000E+00 
SP   1    1.000000
   2.55611000E-01    1.00000000E+00   1.00000000E+00 
SP   1    1.000000
   8.45000000E-02    1.00000000E+00   1.00000000E+00 
SP   1    1.000000
   2.54518072E-02    1.00000000E+00   1.00000000E+00 
D    1    1.000000
   1.29200000E+00    1.00000000E+00 
****
N    0
S    1    1.000000
   6.29348000E+03    1.96979000E-03 
S    1    1.000000
   9.49044000E+02    1.49613000E-02 
S    1    1.000000
   2.18776000E+02    7.35006000E-02 
S    1    1.000000
   6.36916000E+01    2.48937000E-01 
S    1    1.000000
   1.88282000E+01    6.02460000E-01 
S    1    1.000000
   2.72023000E+00    2.56202000E-01 
SP   3    1.000000
   3.06331000E+01    1.11906000E-01   3.83119000E-02 
   7.02614000E+00    9.21666000E-01   2.37403000E-01 
   2.11205000E+00   -2.56919000E-03   8.17592000E-01 
SP   1    1.000000
   6.84009000E-01    1.00000000E+00   1.00000000E+00 
SP   1    1.000000
   2.00878000E-01    1.00000000E+00   1.00000000E+00 
SP   1    1.000000
   6.39000000E-02    1.00000000E+00   1.00000000E+00 
SP   1    1.000000
   1.92469880E-02    1.00000000E+00   1.00000000E+00 
D    1    1.000000
   9.13000000E-01    1.00000000E+00 
****
N    0
S    1    1.000000
   6.29348000E+03    1.96979000E-03 
S    1    1.000000
   9.49044000E+02    1.49613000E-02 
S    1    1.000000
   2.18776000E+02    7.35006000E-02 
S    1    1.000000
   6.36916000E+01    2.48937000E-01 
S    1    1.000000
   1.88282000E+01    6.02460000E-01 
S    1    1.000000
   2.72023000E+00    2.56202000E-01 
SP   3    1.000000
   3.06331000E+01    1.11906000E-01   3.83119000E-02 
   7.02614000E+00    9.21666000E-01   2.37403000E-01 
   2.11205000E+00   -2.56919000E-03   8.17592000E-01 
SP   1    1.000000
   6.84009000E-01    1.00000000E+00   1.00000000E+00 
SP   1    1.000000
   2.00878000E-01    1.00000000E+00   1.00000000E+00 
SP   1    1.000000
   6.39000000E-02    1.00000000E+00   1.00000000E+00 
SP   1    1.000000
   1.92469880E-02    1.00000000E+00   1.00000000E+00 
D    1    1.000000
   9.13000000E-01    1.00000000E+00 
****
C    0
S    1    1.000000
   4.56324000E+03    1.96665000E-03 
S    1    1.000000
   6.82024000E+02    1.52306000E-02 
S    1    1.000000
   1.54973000E+02    7.61269000E-02 
S    1    1.000000
   4.44553000E+01    2.60801000E-01 
S    1    1.000000
   1.30290000E+01    6.16462000E-01 
S    1    1.000000
   1.82773000E+00    2.21006000E-01 
SP   3    1.000000
   2.09642000E+01    1.14660000E-01   4.02487000E-02 
   4.80331000E+00    9.19999000E-01   2.37594000E-01 
   1.45933000E+00   -3.03068000E-03   8.15854000E-01 
SP   1    1.000000
   4.83456000E-01    1.00000000E+00   1.00000000E+00 
SP   1    1.000000
   1.45585000E-01    1.00000000E+00   1.00000000E+00 
SP   1    1.000000
   4.38000000E-02    1.00000000E+00   1.00000000E+00 
SP   1    1.000000
   1.31927711E-02    1.00000000E+00   1.00000000E+00 
D    1    1.000000
   6.26000000E-01    1.00000000E+00 
****
H    0
S    3    1.000000
   3.38650000E+01    2.54938000E-02 
   5.09479000E+00    1.90373000E-01 
   1.15879000E+00    8.52161000E-01 
S    1    1.000000
   3.25840000E-01    1.00000000E+00 
S    1    1.000000
   1.02741000E-01    1.00000000E+00 
S    1    1.000000
   3.60000000E-02    1.00000000E+00 
P    1    1.000000
   7.50000000E-01    1.00000000E+00 
****
$end
-----------------------------------------------------------------------
 There are 116 shells and 276 basis functions
 WARNING: the default MEM_TOTAL is adjusted according to given MEM_STATIC!
 Total memory of 40192 MB is distributed as follows: 
   MEM_STATIC is set to 192 MB
   QALLOC/CCMAN JOB total memory use is  40000 MB
 Warning: actual memory use might exceed 40192 MB

 Total QAlloc Memory Limit  40192 MB
 Mega-Array Size       188 MB
 MEM_STATIC part       192 MB

                       Distance Matrix (Angstroms)
             C (  1)   H (  2)   H (  3)   H (  4)   C (  5)   O (  6)
   H (  2)  2.078256
   H (  3)  1.079812  2.359703
   H (  4)  3.690667  4.028445  4.766843
   C (  5)  2.428535  2.028674  3.361535  2.029375
   O (  6)  3.541017  2.477987  4.364435  2.496718  1.214793
   C (  7)  2.423643  3.802677  3.426309  2.058244  2.508132  3.612537
   O (  8)  3.565452  5.017873  4.497886  2.470136  3.583415  4.572021
   N (  9)  2.679859  3.204487  3.756392  1.010813  1.379660  2.294292
   N ( 10)  1.370076  1.006193  2.077895  3.210986  1.385201  2.287190
   C ( 11)  1.348016  3.287105  2.132498  3.300967  2.851092  4.065813
   H ( 12)  2.119492  4.187728  2.490969  4.207164  3.927233  5.141931
             C (  7)   O (  8)   N (  9)   N ( 10)   C ( 11)
   O (  8)  1.218322
   N (  9)  1.403352  2.278445
   N ( 10)  2.796673  4.012523  2.301756
   C ( 11)  1.453384  2.384672  2.386333  2.377083
   H ( 12)  2.184870  2.689849  3.370872  3.357728  1.076148

 A cutoff of  1.0D-14 yielded   5442 shell pairs
 There are     35779 function pairs (     37954 Cartesian)
 Smallest overlap matrix eigenvalue = 2.79E-07
 Linear dependence detected in AO basis
 Tighter screening thresholds may be required for diffuse basis sets
 Use S2THRESH > 14 and THRESH = 14 in case of SCF convergence issues
 Number of orthogonalized atomic orbitals = 274
 Maximum deviation from orthogonality = 1.662E-10

 Scale SEOQF with 1.000000e-01/1.000000e-01/1.000000e-01

 Standard Electronic Orientation quadrupole field applied
 Nucleus-field energy     =     0.0000000098 hartrees
 Guess MOs from SCF MO coefficient file

 -----------------------------------------------------------------------
  General SCF calculation program by
  Eric Jon Sundstrom, Paul Horn, Yuezhi Mao, Dmitri Zuev, Alec White,
  David Stuck, Shaama M.S., Shane Yost, Joonho Lee, David Small,
  Daniel Levine, Susi Lehtola, Hugh Burton, Evgeny Epifanovsky
 -----------------------------------------------------------------------
 Hartree-Fock
 using 4 threads for integral computing
 -------------------------------------------------------
 OpenMP Integral computing Module                
 Release: version 2.0, May 2017, Q-Chem Inc. Pleasanton 
 -------------------------------------------------------
 A unrestricted SCF calculation will be
 performed using DIIS
 SCF converges when DIIS error is below 1.0e-08
 ---------------------------------------
  Cycle       Energy         DIIS error
 ---------------------------------------
Maximum Overlap Method Active
 MOM overlap:    29.9 / 30
Maximum Overlap Method Active
 MOM overlap:    28.0 / 28
    1    -412.2991602698      8.85e-04  
Maximum Overlap Method Active
 MOM overlap:    29.99 / 30
Maximum Overlap Method Active
 MOM overlap:    28.00 / 28
    2    -412.3540450324      4.49e-04  
Maximum Overlap Method Active
 MOM overlap:    29.99 / 30
Maximum Overlap Method Active
 MOM overlap:    28.00 / 28
    3    -412.3676340990      1.80e-04  
Maximum Overlap Method Active
 MOM overlap:    29.99 / 30
Maximum Overlap Method Active
 MOM overlap:    28.00 / 28
    4    -412.3738586628      1.27e-04  
Maximum Overlap Method Active
 MOM overlap:    30.00 / 30
Maximum Overlap Method Active
 MOM overlap:    28.00 / 28
    5    -412.3773729788      7.09e-05  
Maximum Overlap Method Active
 MOM overlap:    30.00 / 30
Maximum Overlap Method Active
 MOM overlap:    28.00 / 28
    6    -412.3789548907      4.90e-05  
Maximum Overlap Method Active
 MOM overlap:    30.00 / 30
Maximum Overlap Method Active
 MOM overlap:    28.00 / 28
    7    -412.3796826001      3.80e-05  
Maximum Overlap Method Active
 MOM overlap:    30.00 / 30
Maximum Overlap Method Active
 MOM overlap:    28.00 / 28
    8    -412.3803028778      3.11e-05  
Maximum Overlap Method Active
 MOM overlap:    30.00 / 30
Maximum Overlap Method Active
 MOM overlap:    28.00 / 28
    9    -412.3809296522      2.47e-05  
Maximum Overlap Method Active
 MOM overlap:    30.00 / 30
Maximum Overlap Method Active
 MOM overlap:    28.00 / 28
   10    -412.3815422236      1.42e-05  
Maximum Overlap Method Active
 MOM overlap:    30.00 / 30
Maximum Overlap Method Active
 MOM overlap:    28.00 / 28
   11    -412.3817048932      9.07e-06  
Maximum Overlap Method Active
 MOM overlap:    30.00 / 30
Maximum Overlap Method Active
 MOM overlap:    28.00 / 28
   12    -412.3817440671      7.09e-06  
Maximum Overlap Method Active
 MOM overlap:    30.00 / 30
Maximum Overlap Method Active
 MOM overlap:    28.00 / 28
   13    -412.3817774957      6.33e-06  
Maximum Overlap Method Active
 MOM overlap:    30.00 / 30
Maximum Overlap Method Active
 MOM overlap:    28.00 / 28
   14    -412.3818018234      5.81e-06  
Maximum Overlap Method Active
 MOM overlap:    30.00 / 30
Maximum Overlap Method Active
 MOM overlap:    28.00 / 28
   15    -412.3818348211      5.21e-06  
Maximum Overlap Method Active
 MOM overlap:    30.00 / 30
Maximum Overlap Method Active
 MOM overlap:    28.00 / 28
   16    -412.3818719599      4.62e-06  
Maximum Overlap Method Active
 MOM overlap:    30.00 / 30
Maximum Overlap Method Active
 MOM overlap:    28.00 / 28
   17    -412.3818975751      4.12e-06  
Maximum Overlap Method Active
 MOM overlap:    30.00 / 30
Maximum Overlap Method Active
 MOM overlap:    28.00 / 28
   18    -412.3819105062      3.87e-06  
Maximum Overlap Method Active
 MOM overlap:    30.00 / 30
Maximum Overlap Method Active
 MOM overlap:    28.00 / 28
   19    -412.3819310437      3.30e-06  
Maximum Overlap Method Active
 MOM overlap:    30.00 / 30
Maximum Overlap Method Active
 MOM overlap:    28.00 / 28
   20    -412.3819562938      2.36e-06  
Maximum Overlap Method Active
 MOM overlap:    30.00 / 30
Maximum Overlap Method Active
 MOM overlap:    28.00 / 28
   21    -412.3819670569      1.53e-06  
Maximum Overlap Method Active
 MOM overlap:    30.00 / 30
Maximum Overlap Method Active
 MOM overlap:    28.00 / 28
   22    -412.3819710818      9.92e-07  
Maximum Overlap Method Active
 MOM overlap:    30.00 / 30
Maximum Overlap Method Active
 MOM overlap:    28.00 / 28
   23    -412.3819722796      5.07e-07  
Maximum Overlap Method Active
 MOM overlap:    30.00 / 30
Maximum Overlap Method Active
 MOM overlap:    28.00 / 28
   24    -412.3819726111      2.73e-07  
Maximum Overlap Method Active
 MOM overlap:    30.00 / 30
Maximum Overlap Method Active
 MOM overlap:    28.00 / 28
   25    -412.3819726586      1.19e-07  
Maximum Overlap Method Active
 MOM overlap:    30.00 / 30
Maximum Overlap Method Active
 MOM overlap:    28.00 / 28
   26    -412.3819726650      6.45e-08  
Maximum Overlap Method Active
 MOM overlap:    30.00 / 30
Maximum Overlap Method Active
 MOM overlap:    28.00 / 28
   27    -412.3819726686      2.97e-08  
Maximum Overlap Method Active
 MOM overlap:    30.00 / 30
Maximum Overlap Method Active
 MOM overlap:    28.00 / 28
   28    -412.3819726687      1.46e-08  
   29    -412.3819726690      8.17e-09  Convergence criterion met
Maximum Overlap Method Active
 MOM overlap:    30.00 / 30
Maximum Overlap Method Active
 MOM overlap:    28.00 / 28
Maximum Overlap Method Active
 MOM overlap:    30.00 / 30
Maximum Overlap Method Active
 MOM overlap:    28.00 / 28
 ---------------------------------------
 SCF time:   CPU 291.68s  wall 78.00s 
<S^2> =          2.275127068
 SCF   energy in the final basis set =     -412.3819726690
 Total energy in the final basis set =     -412.3819726690


 ------------------------------------------------------------------------------

   CCMAN2: suite of methods based on coupled cluster
           and equation of motion theories.

   Components:
   * libvmm-1.3-trunk
     by Evgeny Epifanovsky, Ilya Kaliman.
   * libtensor-2.5-trunk
     by Evgeny Epifanovsky, Michael Wormit, Dmitry Zuev, Sam Manzer, 
        Ilya Kaliman.
   * libcc-2.5-trunk
     by Evgeny Epifanovsky, Arik Landau, Tomasz Kus, Kirill Khistyaev, 
        Dmitry Zuev, Prashant Manohar, Xintian Feng, Anna Krylov, 
        Matthew Goldey, Alec White, Thomas Jagau, Kaushik Nanda, 
        Anastasia Gunina, Alexander Kunitsa, Joonho Lee.

   CCMAN original authors:
   Anna I. Krylov, C. David Sherrill, Steven R. Gwaltney,
   Edward F. C. Byrd (2000)
   Sergey V. Levchenko, Lyudmila V. Slipchenko, Tao Wang,
   Ana-Maria C. Cristian (2003)
   Piotr A. Pieniazek, C. Melania Oana, Evgeny Epifanovsky (2007)
   Prashant Manohar (2009)

 ------------------------------------------------------------------------------


 Allocating and initializing 40000MB of RAM...
 Calculation will run on 4 cores.


 Alpha MOs, Unrestricted
 -- Occupied --                  
-20.656 -20.653 -15.790 -15.693 -11.494 -11.455 -11.421 -11.386
  1 A'    2 A'    3 A'    4 A'    5 A'    6 A'    7 A'    8 A'                 
 -1.536  -1.508  -1.432  -1.328  -1.210  -1.022  -0.987  -0.908
  9 A'   10 A'   11 A'   12 A'   13 A'   14 A'   15 A'   16 A'                 
 -0.861  -0.788  -0.772  -0.772  -0.749  -0.714  -0.692  -0.689
 17 A'   18 A'   19 A'    1 A"   20 A'   21 A'   22 A'    2 A"                 
 -0.641  -0.581  -0.552  -0.544  -0.523  -0.122
  3 A"   23 A'   24 A'    4 A"    5 A"   25 A'                                 
 -- Virtual --                   
  0.005   0.008   0.009   0.018   0.023   0.025   0.028   0.032
 26 A'    6 A"   27 A'    7 A"   28 A'   29 A'   30 A'    8 A"                 
  0.032   0.038   0.042   0.046   0.048   0.049   0.052   0.055
  9 A"   31 A'   32 A'   33 A'   34 A'   35 A'   10 A"   36 A'                 
  0.060   0.060   0.067   0.072   0.074   0.077   0.080   0.091
 11 A"   37 A'   38 A'   12 A"   39 A'   13 A"   40 A'   41 A'                 
  0.092   0.104   0.105   0.106   0.113   0.117   0.125   0.130
 14 A"   42 A'   15 A"   43 A'   44 A'   45 A'   46 A'   47 A'                 
  0.133   0.139   0.142   0.143   0.160   0.164   0.173   0.178
 48 A'   49 A'   50 A'   16 A"   17 A"   51 A'   52 A'   18 A"                 
  0.190   0.197   0.201   0.213   0.215   0.220   0.230   0.237
 53 A'   54 A'   55 A'   19 A"   56 A'   57 A'   20 A"   58 A'                 
  0.240   0.245   0.249   0.251   0.263   0.274   0.295   0.297
 59 A'   60 A'   21 A"   61 A'   62 A'   63 A'   64 A'   22 A"                 
  0.314   0.324   0.343   0.354   0.359   0.362   0.376   0.379
 65 A'   66 A'   67 A'   23 A"   68 A'   69 A'   24 A"   70 A'                 
  0.382   0.396   0.403   0.413   0.419   0.431   0.439   0.456
 71 A'   72 A'   73 A'   74 A'   75 A'   76 A'   77 A'   78 A'                 
  0.474   0.505   0.506   0.574   0.576   0.586   0.649   0.660
 79 A'   80 A'   81 A'   82 A'   83 A'   84 A'   85 A'   25 A"                 
  0.676   0.696   0.722   0.728   0.731   0.752   0.766   0.823
 86 A'   87 A'   26 A"   88 A'   27 A"   89 A'   28 A"   90 A'                 
  0.836   0.880   0.895   0.900   0.934   0.937   0.952   0.955
 91 A'   92 A'   93 A'   94 A'   95 A'   96 A'   97 A'   29 A"                 
  0.960   0.990   1.032   1.034   1.044   1.088   1.141   1.151
 98 A'   99 A'   30 A"  100 A'  101 A'  102 A'   31 A"   32 A"                 
  1.189   1.204   1.236   1.282   1.306   1.306   1.323   1.349
103 A'  104 A'  105 A'   33 A"  106 A'   34 A"   35 A"   36 A"                 
  1.369   1.390   1.391   1.440   1.440   1.476   1.478   1.513
107 A'   37 A"  108 A'   38 A"  109 A'  110 A'  111 A'  112 A'                 
  1.680   1.696   1.732   1.743   1.806   1.822   1.838   1.865
113 A'  114 A'  115 A'   39 A"  116 A'   40 A"  117 A'   41 A"                 
  1.874   1.909   1.939   1.944   1.994   2.051   2.076   2.118
118 A'  119 A'  120 A'   42 A"  121 A'  122 A'  123 A'  124 A'                 
  2.121   2.163   2.213   2.228   2.244   2.282   2.451   2.479
 43 A"  125 A'  126 A'  127 A'   44 A"  128 A'  129 A'   45 A"                 
  2.510   2.567   2.591   2.635   2.725   2.745   2.768   2.863
130 A'   46 A"  131 A'   47 A"   48 A"  132 A'  133 A'  134 A'                 
  2.883   2.931   2.943   2.984   2.988   3.094   3.111   3.121
135 A'  136 A'  137 A'  138 A'   49 A"   50 A"   51 A"  139 A'                 
  3.128   3.161   3.195   3.195   3.212   3.231   3.235   3.315
140 A'   52 A"  141 A'  142 A'   53 A"  143 A'   54 A"  144 A'                 
  3.440   3.496   3.658   3.664   3.731   3.757   3.791   3.828
145 A'  146 A'   55 A"   56 A"  147 A'  148 A'  149 A'  150 A'                 
  3.875   3.935   3.965   4.024   4.174   4.200   4.292   4.320
151 A'  152 A'  153 A'  154 A'   57 A"  155 A'   58 A"  156 A'                 
  4.402   4.513   4.931   5.072   5.207   5.345   5.472   5.508
157 A'  158 A'  159 A'  160 A'  161 A'  162 A'  163 A'   59 A"                 
  5.519   5.599   5.630   5.686   5.769   5.813   6.347   6.353
 60 A"  164 A'  165 A'  166 A'  167 A'  168 A'  169 A'  170 A'                 
  7.556   7.651   9.786   9.833  20.561  20.615  20.646  20.800
171 A'  172 A'  173 A'  174 A'  175 A'  176 A'  177 A'  178 A'                 
 30.069  30.167  40.793  40.833  80.116  80.155  80.192  80.329
179 A'  180 A'  181 A'  182 A'  183 A'  184 A'  185 A'  186 A'                 
116.190 116.283 159.141 159.173 321.941 321.975 322.013 322.134
187 A'  188 A'  189 A'  190 A'  191 A'  192 A'  193 A'  194 A'                 
460.292 460.379 631.841 631.8671431.4931431.5271431.5651431.671
195 A'  196 A'  197 A'  198 A'  199 A'  200 A'  201 A'  202 A'                 
*******2012.8512759.2382759.2608749.7128749.7488749.7858749.876
203 A'  204 A'  205 A'  206 A'  207 A'  208 A'  209 A'  210 A'                 
*******************************
211 A'  212 A'  213 A'  214 A'                                                 

 Beta MOs, Unrestricted
 -- Occupied --                  
-20.640 -20.639 -15.766 -15.695 -11.500 -11.463 -11.428 -11.369
  1 A'    2 A'    3 A'    4 A'    5 A'    6 A'    7 A'    8 A'                 
 -1.514  -1.475  -1.388  -1.317  -1.165  -1.020  -0.981  -0.889
  9 A'   10 A'   11 A'   12 A'   13 A'   14 A'   15 A'   16 A'                 
 -0.854  -0.783  -0.757  -0.736  -0.726  -0.701  -0.684  -0.612
 17 A'   18 A'   19 A'   20 A'    1 A"   21 A'   22 A'    2 A"                 
 -0.564  -0.555  -0.532  -0.459
 23 A'    3 A"   24 A'    4 A"                                                 
 -- Virtual --                   
 -0.116   0.004   0.013   0.016   0.020   0.028   0.031   0.032
  5 A"   25 A'   26 A'    6 A"   27 A'   28 A'   29 A'    7 A"                 
  0.035   0.035   0.040   0.045   0.047   0.049   0.051   0.054
 30 A'    8 A"    9 A"   31 A'   32 A'   33 A'   34 A'   35 A'                 
  0.056   0.063   0.064   0.067   0.074   0.083   0.086   0.087
 10 A"   36 A'   11 A"   37 A'   38 A'   12 A"   39 A'   40 A'                 
  0.088   0.095   0.100   0.106   0.110   0.117   0.120   0.124
 13 A"   41 A'   14 A"   42 A'   43 A'   44 A'   45 A'   15 A"                 
  0.131   0.135   0.140   0.143   0.155   0.156   0.169   0.174
 46 A'   47 A'   48 A'   49 A'   50 A'   16 A"   51 A'   17 A"                 
  0.182   0.184   0.197   0.206   0.209   0.213   0.220   0.224
 52 A'   18 A"   53 A'   54 A'   55 A'   19 A"   56 A'   57 A'                 
  0.240   0.242   0.248   0.250   0.257   0.259   0.266   0.286
 58 A'   59 A'   60 A'   20 A"   61 A'   21 A"   62 A'   63 A'                 
  0.297   0.313   0.322   0.334   0.344   0.356   0.365   0.377
 64 A'   22 A"   65 A'   66 A'   67 A'   68 A'   69 A'   23 A"                 
  0.385   0.388   0.390   0.394   0.406   0.417   0.422   0.435
 70 A'   71 A'   24 A"   72 A'   73 A'   74 A'   75 A'   76 A'                 
  0.441   0.459   0.476   0.509   0.511   0.575   0.580   0.601
 77 A'   78 A'   79 A'   80 A'   81 A'   82 A'   83 A'   84 A'                 
  0.653   0.680   0.683   0.697   0.707   0.729   0.742   0.758
 85 A'   25 A"   86 A'   87 A'   26 A"   88 A'   27 A"   28 A"                 
  0.760   0.825   0.847   0.882   0.899   0.905   0.936   0.940
 89 A'   90 A'   91 A'   92 A'   93 A'   94 A'   95 A'   96 A'                 
  0.953   0.965   0.997   0.997   1.034   1.044   1.046   1.092
 97 A'   98 A'   99 A'   29 A"  100 A'   30 A"  101 A'  102 A'                 
  1.157   1.163   1.193   1.213   1.238   1.302   1.310   1.336
 31 A"   32 A"  103 A'  104 A'  105 A'   33 A"  106 A'   34 A"                 
  1.353   1.364   1.373   1.397   1.398   1.436   1.446   1.482
 35 A"   36 A"  107 A'   37 A"  108 A'   38 A"  109 A'  110 A'                 
  1.488   1.518   1.685   1.699   1.736   1.748   1.810   1.825
111 A'  112 A'  113 A'  114 A'  115 A'   39 A"  116 A'   40 A"                 
  1.844   1.863   1.877   1.914   1.942   1.948   1.992   2.055
117 A'   41 A"  118 A'  119 A'  120 A'   42 A"  121 A'  122 A'                 
  2.076   2.119   2.140   2.164   2.221   2.231   2.260   2.283
123 A'  124 A'   43 A"  125 A'  126 A'  127 A'   44 A"  128 A'                 
  2.457   2.491   2.516   2.576   2.595   2.655   2.744   2.747
129 A'   45 A"  130 A'   46 A"  131 A'   47 A"   48 A"  132 A'                 
  2.773   2.868   2.897   2.935   2.948   2.988   3.012   3.083
133 A'  134 A'  135 A'  136 A'  137 A'  138 A'   49 A"   50 A"                 
  3.106   3.124   3.139   3.189   3.202   3.226   3.237   3.255
 51 A"  139 A'  140 A'   52 A"  141 A'  142 A'   53 A"  143 A'                 
  3.267   3.327   3.444   3.500   3.685   3.692   3.737   3.760
 54 A"  144 A'  145 A'  146 A'   55 A"   56 A"  147 A'  148 A'                 
  3.796   3.833   3.880   3.938   3.969   4.027   4.208   4.228
149 A'  150 A'  151 A'  152 A'  153 A'  154 A'  155 A'   57 A"                 
  4.293   4.329   4.406   4.518   4.932   5.076   5.212   5.353
 58 A"  156 A'  157 A'  158 A'  159 A'  160 A'  161 A'  162 A'                 
  5.469   5.557   5.563   5.603   5.633   5.695   5.775   5.816
163 A'   59 A"   60 A"  164 A'  165 A'  166 A'  167 A'  168 A'                 
  6.354   6.360   7.577   7.653   9.802   9.848  20.559  20.614
169 A'  170 A'  171 A'  172 A'  173 A'  174 A'  175 A'  176 A'                 
 20.643  20.802  30.081  30.167  40.800  40.841  80.115  80.155
177 A'  178 A'  179 A'  180 A'  181 A'  182 A'  183 A'  184 A'                 
 80.191  80.330 116.195 116.282 159.143 159.175 321.940 321.974
185 A'  186 A'  187 A'  188 A'  189 A'  190 A'  191 A'  192 A'                 
322.013 322.134 460.294 460.379 631.842 631.8681431.4931431.527
193 A'  194 A'  195 A'  196 A'  197 A'  198 A'  199 A'  200 A'                 
*******1431.6712012.7692012.8512759.2382759.2608749.7128749.748
201 A'  202 A'  203 A'  204 A'  205 A'  206 A'  207 A'  208 A'                 
*******8749.876********************************
209 A'  210 A'  211 A'  212 A'  213 A'  214 A'                                 

 Occupation and symmetry of molecular orbitals

 Point group: Cs (2 irreducible representations).

                           A'   A"    All 
 ------------------------------------------
 All molecular orbitals:
  - Alpha                  214  60    274 
  - Beta                   214  60    274 
 ------------------------------------------
 Alpha orbitals:
  - Frozen occupied        8    0     8   
  - Active occupied        17   5     22  
  - Active virtual         189  55    244 
  - Frozen virtual         0    0     0   
 ------------------------------------------
 Beta orbitals:
  - Frozen occupied        8    0     8   
  - Active occupied        16   4     20  
  - Active virtual         190  56    246 
  - Frozen virtual         0    0     0   
 ------------------------------------------

 Import integrals:   CPU 0.00 s  wall 0.00 s

 Import integrals:   CPU 1263.12 s  wall 433.03 s

 MP2 amplitudes:   CPU 2.01 s  wall 0.77 s

Running a double precision version
           CCSD T amplitudes will be solved using DIIS.

           Start     Size      MaxIter   EConv     TConv     
           3         7         100       1.00e-06  1.00e-04  
 ------------------------------------------------------------------------------
           Energy (a.u.)   Ediff      Tdiff       Comment
 ------------------------------------------------------------------------------
          -413.62508814                           
     1    -413.60644872   1.86e-02   9.81e-01     Step took 01.07.
     2    -413.65259989   4.62e-02   1.30e-01     
     3    -413.65198301   6.17e-04   5.45e-02     
     4    -413.65826376   6.28e-03   2.05e-02     Switched to DIIS steps.
     5    -413.66302033   4.76e-03   2.31e-02     
     6    -413.66402650   1.01e-03   7.23e-03     
     7    -413.66438255   3.56e-04   4.75e-03     
     8    -413.66447078   8.82e-05   1.66e-03     
     9    -413.66452266   5.19e-05   1.30e-03     
    10    -413.66451626   6.40e-06   7.21e-04     
    11    -413.66451149   4.77e-06   3.60e-04     
    12    -413.66451197   4.78e-07   2.35e-04     
    13    -413.66450890   3.07e-06   7.41e-05     
    14    -413.66450929   3.92e-07   6.70e-05     
 ------------------------------------------------------------------------------
          -413.66450929                           CCSD T converged.

End of double precision
 SCF energy                 = -412.38197267
 MP2 energy                 = -413.62508814
 CCSD correlation energy    =   -1.28253662
 CCSD total energy          = -413.66450929

 CCSD  T1^2 = 0.0994  T2^2 = 0.4263  Leading amplitudes:

 Amplitude    Orbitals with energies
  0.0811       25 (A') A                 ->    26 (A') A                  
              -0.1222                          0.0048                     
 -0.0762       2 (A") A                  ->    13 (A") A                  
              -0.6888                          0.0768                     
 -0.0719       25 (A') A                 ->    31 (A') A                  
              -0.1222                          0.0382                     
 -0.0660       4 (A") B                  ->    9 (A") B                   
              -0.4593                          0.0401                     

 Amplitude    Orbitals with energies
  0.0257       5 (A") A      4 (A") B    ->    13 (A") A     5 (A") B     
              -0.5233       -0.4593            0.0768       -0.1162       
 -0.0257       5 (A") A      4 (A") B    ->    5 (A") B      13 (A") A    
              -0.5233       -0.4593           -0.1162        0.0768       
 -0.0257       4 (A") B      5 (A") A    ->    13 (A") A     5 (A") B     
              -0.4593       -0.5233            0.0768       -0.1162       
  0.0257       4 (A") B      5 (A") A    ->    5 (A") B      13 (A") A    
              -0.4593       -0.5233           -0.1162        0.0768       

 Computing CCSD intermediates for later calculations in double precision
 Finished.

Running a double precision version
           CCSD Lambda amplitudes will be solved using DIIS.
           Start     Size      MaxIter   EConv     LConv     
           3         7         100       1.00e-06  1.00e-04  
 ------------------------------------------------------------------------------
            Enorm      Ldiff       Comment
 ------------------------------------------------------------------------------
     1     8.23e-02   4.80e-02     
     2     2.62e-02   7.55e-03     
     3     1.32e-02   9.77e-04     
     4     7.03e-03   1.53e-03     Switched to DIIS steps.
     5     2.92e-03   9.34e-04     
     6     1.81e-03   1.98e-04     
     7     9.54e-04   5.58e-05     
     8     5.47e-04   2.72e-05     
     9     2.89e-04   4.67e-05     
    10     1.85e-04   3.13e-05     
    11     1.14e-04   2.49e-05     
    12     5.93e-05   2.08e-05     
    13     3.67e-05   6.20e-06     
    14     2.19e-05   3.89e-06     
    15     1.39e-05   7.54e-07     
    16     1.01e-05   1.41e-08     
    17     6.66e-06   4.76e-09     
    18     4.58e-06   1.59e-07     
    19     2.75e-06   9.28e-09     
    20     1.80e-06   1.48e-08     
    21     1.14e-06   1.87e-08     
    22     7.16e-07   1.05e-08     
 ------------------------------------------------------------------------------
                                   CCSD Lambda converged.

 CCSD calculation:   CPU 7094.07 s  wall 3291.78 s

        Solving for CVS-EOMIP-CCSD A' transitions.

Running a double precision version
      CVS-EOMIP-CCSD/MP2 right amplitudes will be solved using Davidson.
        Amplitudes will be solved using shifted  algorithm.
     Hard-coded thresholds: 
     LinDepThresh=1.00e-15  NormThresh=1.00e-06  ReorthogonThresh=1.00e-02

      Roots     MaxVec    MaxIter   Precond   Conv      Shift    
      2         120       60        1         1.00e-05  1.95e+01  
 ------------------------------------------------------------------------------
      Iter ConvRoots NVecs ResNorm Current eigenvalues (eV)
 ------------------------------------------------------------------------------
      0    0      2     1.97e+00   561.9762   561.9901   
      1    0      4     5.16e+00   558.5112   558.5153   
      2    0      6     1.22e-01   542.3632   542.3777   
      3    0      8     3.28e-01   539.9879   541.6005   
      4    0      10    9.32e-02   531.2903   529.8695   
      5    0      12    9.49e-02   529.9632   531.2978   
      6    0      14    9.53e-02   530.0748   531.3720   
      7    0      16    9.49e-02   530.0752   531.3888   
      8    0      18    9.47e-02   530.0795   531.3989   
      9    0      20    9.40e-02   530.0955   531.4438   
      10   0      22    9.35e-02   530.1101   531.4528   
      11   0      24    9.34e-02   530.1138   531.4611   
      12   0      26    9.49e-02   530.2340   531.4625   
      13   0      28    9.55e-02   530.2525   531.4901   
      14   0      30    9.56e-02   530.3223   531.5041   
      15   0      32    9.58e-02   530.3744   531.5532   
      16   0      34    9.62e-02   530.4510   531.5611   
      17   0      36    9.64e-02   530.4595   531.5616   
      18   0      38    9.61e-02   530.5042   531.5720   
      19   0      40    9.74e-02   530.5179   531.6581   
      20   0      42    9.72e-02   530.5365   531.6590   
      21   0      44    9.72e-02   530.5425   531.6638   
      22   0      46    9.76e-02   530.5427   531.6868   
Found complex roots...
      23   0      48    9.82e-02   530.6095   531.7015   
      24   0      50    9.88e-02   530.6149   531.7071   
      25   0      52    9.91e-02   530.6198   531.7139   
      26   0      54    9.95e-02   530.6241   531.7181   
      27   0      56    9.98e-02   530.6257   531.7340   
      28   0      58    1.00e-01   530.6310   531.7413   
      29   0      60    1.02e-01   530.6493   531.7521   
      30   0      62    1.03e-01   530.6802   531.7715   
      31   0      64    1.79e-01   530.6832   529.6034   
      32   0      66    1.80e-01   530.7045   529.6069   
      33   0      68    1.80e-01   530.7447   529.6120   
      34   0      70    1.79e-01   530.7663   529.6221   
      35   0      72    1.79e-01   530.7761   529.6439   
      36   0      74    1.78e-01   530.7832   529.7115   
      37   0      76    1.78e-01   530.7873   529.7247   
      38   0      78    1.79e-01   530.8028   529.8450   
      39   0      80    1.83e-01   530.8107   529.9854   
      40   0      82    1.81e-01   530.8115   530.0470   
      41   0      84    1.83e-01   530.8118   530.0630   
      42   0      86    1.82e-01   530.8139   530.0793   
      43   0      88    1.81e-01   530.8211   530.1698   
      44   0      90    1.83e-01   530.8389   530.2317   
      45   0      92    1.83e-01   530.8594   530.2376   
      46   0      94    1.83e-01   530.8825   530.2406   
      47   0      96    1.83e-01   530.9118   530.2487   
      48   0      98    1.84e-01   530.2782   531.0095   
      49   0      100   1.85e-01   530.2944   531.0099   
      50   0      102   1.84e-01   530.3137   531.0349   
      51   0      104   1.84e-01   530.3276   531.0559   
      52   0      106   1.84e-01   530.3407   531.0670   
      53   0      108   1.84e-01   530.8178   531.0703   
      54   0      110   1.83e-01   530.8538   531.0991   
      55   0      112   1.83e-01   530.8714   531.1299   
      56   0      114   1.82e-01   530.8855   531.1424   
      57   0      116   1.81e-01   530.8884   531.1937   
      58   0      118   1.71e-01   530.8956   530.1358   
      59   0      120   1.69e-01   530.9431   530.1495   

 EOMIP transition 1/A'
 Total energy = -394.15270845 a.u.  Excitation energy = 530.9431 eV.
 R1^2 = 0.0000  R2_CCVV^2 = 0.0000  R2_COVV^2 = 1.0000  Res^2 = 2.28e-01
 Conv-d = no

 Amplitude    Transitions between orbitals
 -0.6991       4 (A') B      12 (A') A   ->    124 (A') B    
  0.5680       8 (A') B      19 (A') A   ->    171 (A') B    
  0.4156       4 (A') B      9 (A') A    ->    124 (A') B    
 -0.3454       3 (A') A      22 (A') A   ->    141 (A') A    
 -0.3357       4 (A') B      12 (A') A   ->    123 (A') B    
  0.3294       4 (A') A      12 (A') B   ->    124 (A') B    
  0.2352       4 (A') B      22 (A') A   ->    144 (A') B    
  0.2060       4 (A') B      9 (A') A    ->    123 (A') B    
  0.2009       3 (A') B      11 (A') A   ->    121 (A') B    
 -0.1864       4 (A') A      5 (A") A    ->    49 (A") A     
 -0.1684       4 (A') B      10 (A') A   ->    124 (A') B    
  0.1651       4 (A') A      4 (A") A    ->    49 (A") A     
 -0.1600       4 (A') B      12 (A') A   ->    122 (A') B    
 -0.1499       4 (A') B      21 (A') A   ->    137 (A') B    
  0.1462       3 (A') A      14 (A') A   ->    129 (A') A    
  0.1282       3 (A') A      21 (A') B   ->    134 (A') B    
  0.1219       3 (A') B      9 (A') A    ->    121 (A') B    
  0.1187       4 (A') A      17 (A') A   ->    132 (A') A    
  0.1084       4 (A') A      12 (A') B   ->    123 (A') B    
 -0.1062       3 (A') A      11 (A') B   ->    121 (A') B    
 -0.1052       4 (A') A      22 (A') A   ->    144 (A') A    
 -0.1047       4 (A') B      21 (A') A   ->    144 (A') B    
 -0.1042       4 (A') A      9 (A') B    ->    124 (A') B    
  0.1028       4 (A') A      16 (A') B   ->    132 (A') B    
 -0.1006       4 (A') A      12 (A') A   ->    124 (A') A    

              Summary of significant orbitals:

               Number  Type             Irrep      Energy
               1       Occ  Alpha       9 (A')     -1.5361
               2       Occ  Alpha      10 (A')     -1.5076
               3       Occ  Alpha       3 (A')    -15.7897
               4       Occ  Alpha      12 (A')     -1.3283
               6       Occ  Alpha      14 (A')     -1.0224
               1       Occ  Alpha      17 (A')     -0.8607
               3       Occ  Alpha      19 (A')     -0.7724
               4       Occ  Beta        4 (A')    -15.6950
               5       Occ  Alpha      21 (A')     -0.7138
               6       Occ  Alpha      22 (A')     -0.6920
               8       Occ  Beta        8 (A')    -11.3695
               28      Occ  Alpha       4 (A")     -0.5437
               29      Occ  Alpha       5 (A")     -0.5233
               9       Occ  Beta        9 (A')     -1.5140
               11      Occ  Beta       11 (A')     -1.3880
               12      Occ  Beta       12 (A')     -1.3173
               16      Occ  Beta       16 (A')     -0.8894
               22      Occ  Beta       21 (A')     -0.7013
               166     Vir  Alpha     124 (A')      2.1175
               173     Vir  Alpha     129 (A')      2.4513
               180     Vir  Alpha     132 (A')      2.7454
               193     Vir  Alpha     141 (A')      3.1949
               198     Vir  Alpha     144 (A')      3.3153
               187     Vir  Alpha      49 (A")      2.9884
               163     Vir  Beta      121 (A')      1.9915
               164     Vir  Beta      122 (A')      2.0554
               165     Vir  Beta      123 (A')      2.0762
               166     Vir  Beta      124 (A')      2.1186
               180     Vir  Beta      132 (A')      2.7469
               182     Vir  Beta      134 (A')      2.8680
               185     Vir  Beta      137 (A')      2.9478
               198     Vir  Beta      144 (A')      3.3267
               231     Vir  Beta      171 (A')      7.5771


 EOMIP transition 2/A'
 Total energy = -394.18187391 a.u.  Excitation energy = 530.1495 eV.
 R1^2 = 0.0000  R2_CCVV^2 = 0.0000  R2_COVV^2 = 1.0000  Res^2 = 1.11e-01
 Conv-d = no

 Amplitude    Transitions between orbitals
  1.0255       4 (A') A      12 (A') A   ->    124 (A') A    
 -0.7408       4 (A') A      9 (A') A    ->    124 (A') A    
  0.1968       4 (A') A      9 (A') A    ->    123 (A') A    
  0.1903       3 (A') A      9 (A') A    ->    121 (A') A    
  0.1478       4 (A') B      5 (A") A    ->    49 (A") B     
 -0.1277       3 (A') A      10 (A') B   ->    125 (A') B    
 -0.1252       4 (A') B      4 (A") A    ->    49 (A") B     
 -0.1225       4 (A') A      16 (A') A   ->    132 (A') A    
 -0.1175       3 (A') A      12 (A') B   ->    125 (A') B    
 -0.1146       3 (A') A      11 (A') B   ->    125 (A') B    
  0.1061       4 (A') A      4 (A") A    ->    49 (A") A     

              Summary of significant orbitals:

               Number  Type             Irrep      Energy
               1       Occ  Alpha       9 (A')     -1.5361
               3       Occ  Alpha       3 (A')    -15.7897
               4       Occ  Alpha       4 (A')    -15.6927
               8       Occ  Alpha      16 (A')     -0.9082
               4       Occ  Beta        4 (A')    -15.6950
               28      Occ  Alpha       4 (A")     -0.5437
               29      Occ  Alpha       5 (A")     -0.5233
               10      Occ  Beta       10 (A')     -1.4753
               11      Occ  Beta       11 (A')     -1.3880
               12      Occ  Beta       12 (A')     -1.3173
               163     Vir  Alpha     121 (A')      1.9943
               165     Vir  Alpha     123 (A')      2.0760
               166     Vir  Alpha     124 (A')      2.1175
               180     Vir  Alpha     132 (A')      2.7454
               187     Vir  Alpha      49 (A")      2.9884
               168     Vir  Beta      125 (A')      2.1641
               187     Vir  Beta       49 (A")      3.0120


Running a double precision version
      CVS-EOMIP-CCSD/MP2 left amplitudes will be solved using Davidson.
        Amplitudes will be solved using MOM  algorithm.
     Hard-coded thresholds: 
     LinDepThresh=1.00e-15  NormThresh=1.00e-06  ReorthogonThresh=1.00e-02

      Roots     MaxVec    MaxIter   Precond   Conv      Shift    
      2         120       60        1         1.00e-05  1.95e+01  
 ------------------------------------------------------------------------------
      Iter ConvRoots NVecs ResNorm Current eigenvalues (eV)
 ------------------------------------------------------------------------------
      0    0      2     1.68e-01   530.9431   530.1495   
      1    0      4     1.94e+02   530.4629   523.8570   
      2    0      6     1.90e+02   530.4716   524.0697   
      3    0      8     1.90e+02   530.4742   524.0974   
      4    0      10    1.88e+02   530.4811   524.1999   
      5    0      12    1.88e+02   530.5086   524.2178   
[...]
210   -7.2062e-16
211   -5.0219e-16
212   1.5590e-15
213   -5.4454e-16
214   -4.7193e-16
215   -1.3096e-15
216   2.8284e-15
217   -2.3842e-15
218   1.6004e-15
219   -2.0307e-15
220   -1.1682e-15
221   -2.9789e-16
222   -4.7234e-16
223   -5.8334e-16
224   8.8383e-16
225   5.3601e-16
226   -4.5713e-16
227   1.1503e-16
228   5.6018e-16
229   -7.7093e-16
230   -3.0169e-15
231   -3.1734e-17
232   -3.0664e-16
233   1.3293e-15
234   -5.6234e-16
235   1.0479e-15
236   -1.5640e-16
237   -7.1738e-16
238   1.3225e-15
239   -1.0849e-15
240   5.4385e-16
241   -3.2778e-16
242   -9.1584e-16
243   -9.0138e-16
244   4.2142e-16
245   -1.1735e-16
246   -5.8469e-16
247   -3.6438e-16
248   -1.1576e-15
249   -1.6836e-16
250   -4.0356e-16
251   -1.5590e-16
252   5.1207e-17
253   3.8265e-16
254   5.2127e-17
255   8.1715e-16
256   2.8395e-16
257   -2.6006e-16
258   2.3133e-16
259   -8.7563e-16
260   3.5302e-16
261   1.3832e-18
262   -1.2546e-15
263   -1.1151e-16
264   9.5423e-17
265   7.5719e-16
266   1.9948e-16
267   5.4869e-16
268   -6.7519e-16
269   -1.3180e-16
270   8.4665e-16
271   7.8178e-17
272   3.4529e-16
273   2.4668e-16

Decomposition over AOs for the right alpha Dyson orbital:
-5.23706493e-08
-4.23877556e-07
-1.96297408e-06
-7.20341224e-06
-1.09545207e-05
3.02260132e-05
-3.04971428e-05
7.18582339e-06
-3.20496068e-06
1.50187787e-15
-9.97835868e-05
1.37340186e-04
-8.94652345e-05
1.14199562e-15
-1.24192224e-04
-8.73060432e-06
-4.33869621e-05
3.22784075e-15
3.19708751e-03
1.19625702e-04
9.65607373e-04
-1.94045955e-14
4.58431370e-04
3.62000443e-04
-1.14803446e-04
-3.53848600e-14
8.15803853e-05
2.56105602e-16
1.82062860e-05
3.85109765e-16
-2.52755702e-05
-7.38292391e-05
-2.11871257e-05
-1.92915723e-06
-3.20263695e-06
-3.33202703e-05
-5.62647501e-06
-4.02632012e-17
-5.27359705e-06
-2.73475414e-05
4.26373950e-05
5.61514173e-04
4.70621672e-06
-1.56049853e-05
1.01299699e-15
-8.37229031e-05
-1.20763969e-05
4.17894213e-05
-1.81611392e-05
-1.27894492e-05
3.18973798e-05
-6.10073192e-16
2.36150828e-06
1.83001848e-05
9.12502781e-05
3.14409662e-04
7.53024449e-04
4.37867903e-04
9.86907325e-04
1.13418941e-05
-1.49468277e-05
-2.30451071e-15
-5.97676243e-04
3.11484611e-04
-1.49940047e-04
-4.44446282e-16
7.17596004e-04
-4.38008017e-04
3.59776621e-04
-4.76982705e-15
2.02001183e-03
-2.46442050e-03
1.34797809e-03
-2.92759407e-14
-1.04511198e-03
-7.72068011e-05
-4.35643150e-04
1.37022430e-14
1.85108337e-04
-1.30065729e-16
1.06374426e-04
1.03878585e-15
-8.96672054e-05
-8.45443829e-04
-6.43137597e-03
-3.15348550e-02
-1.07321070e-01
-2.65619541e-01
-1.26153131e-01
-3.81639226e-01
-1.34522888e-03
8.05372191e-04
-1.63436586e-15
-4.18185146e-03
6.24256419e-04
-3.72679067e-04
-7.20010500e-16
5.39536646e-04
-3.24062572e-04
1.72158255e-04
-6.97244264e-15
-2.84341374e-03
-2.27855636e-04
1.60634757e-04
5.13854929e-15
-7.06595970e-03
-1.31183523e-03
6.07797980e-04
-1.11473599e-14
-8.30018261e-05
6.13299415e-16
-4.96600674e-05
-3.61053473e-16
3.69357731e-05
-2.53610985e-06
-1.96644678e-05
-9.78762636e-05
-3.37136722e-04
-7.94206132e-04
-3.24249893e-04
-1.06440446e-03
2.45068630e-05
-3.22534000e-06
9.28878731e-16
9.29533977e-05
2.83854801e-04
8.86594335e-05
-1.95460966e-15
-4.30746702e-04
-2.61178499e-04
-1.55865182e-04
6.55701977e-15
1.20033939e-03
-2.17995073e-03
-9.41023378e-04
-3.67685401e-14
3.47000668e-04
-2.48781305e-04
4.86839481e-04
-6.05202105e-14
1.40142905e-04
-1.98137872e-16
-3.56955542e-05
4.60608379e-16
6.39128670e-06
3.99026276e-04
3.03542359e-03
1.48835722e-02
5.06523073e-02
1.25366221e-01
5.95901187e-02
1.80099963e-01
-6.16192826e-04
-3.75214838e-04
-1.46582454e-16
1.98896065e-03
3.04062449e-04
1.83083185e-04
3.11625308e-16
-2.70393685e-04
-1.69511989e-04
-8.93808308e-05
-1.12045492e-15
1.61737055e-03
-1.14255207e-04
-1.33174279e-04
9.27140276e-16
4.66507509e-03
-8.17014873e-04
-2.51081919e-04
1.48565959e-14
-4.41290786e-05
2.66404231e-16
3.86022304e-05
1.63383127e-16
-2.54456456e-05
-3.65625331e-04
-2.78390014e-03
-1.36402413e-02
-4.63007548e-02
-1.11939870e-01
-4.79850148e-02
-1.55794336e-01
2.28341361e-05
7.83360222e-05
-1.64449920e-15
-1.46002555e-03
4.31057508e-05
-2.69722739e-05
2.74275084e-15
1.49751406e-04
3.72096955e-05
-2.82957156e-05
-1.02046028e-14
-6.95671461e-04
-1.24313741e-05
-3.53603206e-05
2.11631384e-14
1.46546381e-05
-3.03482344e-03
1.26299968e-04
2.45762951e-14
-9.67366164e-06
4.69514915e-16
4.60680307e-06
1.03710750e-15
-1.49434816e-05
-3.22720371e-04
-2.45722288e-03
-1.20394584e-02
-4.08670936e-02
-9.88033296e-02
-4.24935027e-02
-1.37444821e-01
-1.30228815e-04
-6.32541435e-05
-1.38510287e-15
-1.47588301e-03
1.05280227e-04
-2.17562492e-05
2.40171319e-15
4.60229128e-04
5.44020775e-05
6.58561239e-05
-8.11054833e-15
-4.69349946e-04
2.76529072e-05
-1.64336442e-05
1.89594783e-14
1.21533506e-03
-2.42403544e-04
5.10471535e-04
1.01106026e-14
-1.13588843e-05
-4.92542898e-16
-9.10843925e-05
5.06011618e-16
1.33486774e-05
7.48097775e-08
5.54242334e-07
2.94482542e-06
9.40262620e-06
2.83130694e-05
3.29444401e-05
1.71689973e-05
-7.92108430e-06
1.50274817e-07
8.82823542e-16
-5.82423598e-05
4.26871361e-05
7.11685537e-06
6.96916516e-16
7.55013636e-05
-7.93001681e-05
3.00537840e-05
4.33288412e-16
-3.72154420e-03
1.15622251e-03
-3.37897085e-04
1.96800216e-14
1.15031790e-04
1.52183745e-04
2.47459909e-04
5.78255482e-14
6.29748218e-06
-3.17902326e-16
1.14553540e-06
-4.64068138e-16
-1.61528042e-05
-3.33023789e-06
1.85947254e-05
8.75035553e-06
-3.68346072e-04
-4.65533105e-07
-1.07199526e-06
6.23865801e-16
   *****

     End transition

 Dyson orbitals calculation:   CPU 0.05 s  wall 0.12 s

 Total ccman2 time:   CPU 8864.56 s  wall 3915.30 s


 --------------------------------------------------------------
             Orbital Energies (a.u.) and Symmetries
 --------------------------------------------------------------

 Alpha MOs, Unrestricted
 -- Occupied --                  
-20.656 -20.653 -15.790 -15.693 -11.494 -11.455 -11.421 -11.386
  1 A'    2 A'    3 A'    4 A'    5 A'    6 A'    7 A'    8 A'                 
 -1.536  -1.508  -1.432  -1.328  -1.210  -1.022  -0.987  -0.908
  9 A'   10 A'   11 A'   12 A'   13 A'   14 A'   15 A'   16 A'                 
 -0.861  -0.788  -0.772  -0.772  -0.749  -0.714  -0.692  -0.689
 17 A'   18 A'   19 A'    1 A"   20 A'   21 A'   22 A'    2 A"                 
 -0.641  -0.581  -0.552  -0.544  -0.523  -0.122
  3 A"   23 A'   24 A'    4 A"    5 A"   25 A'                                 
 -- Virtual --                   
  0.005   0.008   0.009   0.018   0.023   0.025   0.028   0.032
 26 A'    6 A"   27 A'    7 A"   28 A'   29 A'   30 A'    8 A"                 
  0.032   0.038   0.042   0.046   0.048   0.049   0.052   0.055
  9 A"   31 A'   32 A'   33 A'   34 A'   35 A'   10 A"   36 A'                 
  0.060   0.060   0.067   0.072   0.074   0.077   0.080   0.091
 11 A"   37 A'   38 A'   12 A"   39 A'   13 A"   40 A'   41 A'                 
  0.092   0.104   0.105   0.106   0.113   0.117   0.125   0.130
 14 A"   42 A'   15 A"   43 A'   44 A'   45 A'   46 A'   47 A'                 
  0.133   0.139   0.142   0.143   0.160   0.164   0.173   0.178
 48 A'   49 A'   50 A'   16 A"   17 A"   51 A'   52 A'   18 A"                 
  0.190   0.197   0.201   0.213   0.215   0.220   0.230   0.237
 53 A'   54 A'   55 A'   19 A"   56 A'   57 A'   20 A"   58 A'                 
  0.240   0.245   0.249   0.251   0.263   0.274   0.295   0.297
 59 A'   60 A'   21 A"   61 A'   62 A'   63 A'   64 A'   22 A"                 
  0.314   0.324   0.343   0.354   0.359   0.362   0.376   0.379
 65 A'   66 A'   67 A'   23 A"   68 A'   69 A'   24 A"   70 A'                 
  0.382   0.396   0.403   0.413   0.419   0.431   0.439   0.456
 71 A'   72 A'   73 A'   74 A'   75 A'   76 A'   77 A'   78 A'                 
  0.474   0.505   0.506   0.574   0.576   0.586   0.649   0.660
 79 A'   80 A'   81 A'   82 A'   83 A'   84 A'   85 A'   25 A"                 
  0.676   0.696   0.722   0.728   0.731   0.752   0.766   0.823
 86 A'   87 A'   26 A"   88 A'   27 A"   89 A'   28 A"   90 A'                 
  0.836   0.880   0.895   0.900   0.934   0.937   0.952   0.955
 91 A'   92 A'   93 A'   94 A'   95 A'   96 A'   97 A'   29 A"                 
  0.960   0.990   1.032   1.034   1.044   1.088   1.141   1.151
 98 A'   99 A'   30 A"  100 A'  101 A'  102 A'   31 A"   32 A"                 
  1.189   1.204   1.236   1.282   1.306   1.306   1.323   1.349
103 A'  104 A'  105 A'   33 A"  106 A'   34 A"   35 A"   36 A"                 
  1.369   1.390   1.391   1.440   1.440   1.476   1.478   1.513
107 A'   37 A"  108 A'   38 A"  109 A'  110 A'  111 A'  112 A'                 
  1.680   1.696   1.732   1.743   1.806   1.822   1.838   1.865
113 A'  114 A'  115 A'   39 A"  116 A'   40 A"  117 A'   41 A"                 
  1.874   1.909   1.939   1.944   1.994   2.051   2.076   2.118
118 A'  119 A'  120 A'   42 A"  121 A'  122 A'  123 A'  124 A'                 
  2.121   2.163   2.213   2.228   2.244   2.282   2.451   2.479
 43 A"  125 A'  126 A'  127 A'   44 A"  128 A'  129 A'   45 A"                 
  2.510   2.567   2.591   2.635   2.725   2.745   2.768   2.863
130 A'   46 A"  131 A'   47 A"   48 A"  132 A'  133 A'  134 A'                 
  2.883   2.931   2.943   2.984   2.988   3.094   3.111   3.121
135 A'  136 A'  137 A'  138 A'   49 A"   50 A"   51 A"  139 A'                 
  3.128   3.161   3.195   3.195   3.212   3.231   3.235   3.315
140 A'   52 A"  141 A'  142 A'   53 A"  143 A'   54 A"  144 A'                 
  3.440   3.496   3.658   3.664   3.731   3.757   3.791   3.828
145 A'  146 A'   55 A"   56 A"  147 A'  148 A'  149 A'  150 A'                 
  3.875   3.935   3.965   4.024   4.174   4.200   4.292   4.320
151 A'  152 A'  153 A'  154 A'   57 A"  155 A'   58 A"  156 A'                 
  4.402   4.513   4.931   5.072   5.207   5.345   5.472   5.508
157 A'  158 A'  159 A'  160 A'  161 A'  162 A'  163 A'   59 A"                 
  5.519   5.599   5.630   5.686   5.769   5.813   6.347   6.353
 60 A"  164 A'  165 A'  166 A'  167 A'  168 A'  169 A'  170 A'                 
  7.556   7.651   9.786   9.833  20.561  20.615  20.646  20.800
171 A'  172 A'  173 A'  174 A'  175 A'  176 A'  177 A'  178 A'                 
 30.069  30.167  40.793  40.833  80.116  80.155  80.192  80.329
179 A'  180 A'  181 A'  182 A'  183 A'  184 A'  185 A'  186 A'                 
116.190 116.283 159.141 159.173 321.941 321.975 322.013 322.134
187 A'  188 A'  189 A'  190 A'  191 A'  192 A'  193 A'  194 A'                 
460.292 460.379 631.841 631.8671431.4931431.5271431.5651431.671
195 A'  196 A'  197 A'  198 A'  199 A'  200 A'  201 A'  202 A'                 
*******2012.8512759.2382759.2608749.7128749.7488749.7858749.876
203 A'  204 A'  205 A'  206 A'  207 A'  208 A'  209 A'  210 A'                 
*******************************
211 A'  212 A'  213 A'  214 A'                                                 

 Beta MOs, Unrestricted
 -- Occupied --                  
-20.640 -20.639 -15.766 -15.695 -11.500 -11.463 -11.428 -11.369
  1 A'    2 A'    3 A'    4 A'    5 A'    6 A'    7 A'    8 A'                 
 -1.514  -1.475  -1.388  -1.317  -1.165  -1.020  -0.981  -0.889
  9 A'   10 A'   11 A'   12 A'   13 A'   14 A'   15 A'   16 A'                 
 -0.854  -0.783  -0.757  -0.736  -0.726  -0.701  -0.684  -0.612
 17 A'   18 A'   19 A'   20 A'    1 A"   21 A'   22 A'    2 A"                 
 -0.564  -0.555  -0.532  -0.459
 23 A'    3 A"   24 A'    4 A"                                                 
 -- Virtual --                   
 -0.116   0.004   0.013   0.016   0.020   0.028   0.031   0.032
  5 A"   25 A'   26 A'    6 A"   27 A'   28 A'   29 A'    7 A"                 
  0.035   0.035   0.040   0.045   0.047   0.049   0.051   0.054
 30 A'    8 A"    9 A"   31 A'   32 A'   33 A'   34 A'   35 A'                 
  0.056   0.063   0.064   0.067   0.074   0.083   0.086   0.087
 10 A"   36 A'   11 A"   37 A'   38 A'   12 A"   39 A'   40 A'                 
  0.088   0.095   0.100   0.106   0.110   0.117   0.120   0.124
 13 A"   41 A'   14 A"   42 A'   43 A'   44 A'   45 A'   15 A"                 
  0.131   0.135   0.140   0.143   0.155   0.156   0.169   0.174
 46 A'   47 A'   48 A'   49 A'   50 A'   16 A"   51 A'   17 A"                 
  0.182   0.184   0.197   0.206   0.209   0.213   0.220   0.224
 52 A'   18 A"   53 A'   54 A'   55 A'   19 A"   56 A'   57 A'                 
  0.240   0.242   0.248   0.250   0.257   0.259   0.266   0.286
 58 A'   59 A'   60 A'   20 A"   61 A'   21 A"   62 A'   63 A'                 
  0.297   0.313   0.322   0.334   0.344   0.356   0.365   0.377
 64 A'   22 A"   65 A'   66 A'   67 A'   68 A'   69 A'   23 A"                 
  0.385   0.388   0.390   0.394   0.406   0.417   0.422   0.435
 70 A'   71 A'   24 A"   72 A'   73 A'   74 A'   75 A'   76 A'                 
  0.441   0.459   0.476   0.509   0.511   0.575   0.580   0.601
 77 A'   78 A'   79 A'   80 A'   81 A'   82 A'   83 A'   84 A'                 
  0.653   0.680   0.683   0.697   0.707   0.729   0.742   0.758
 85 A'   25 A"   86 A'   87 A'   26 A"   88 A'   27 A"   28 A"                 
  0.760   0.825   0.847   0.882   0.899   0.905   0.936   0.940
 89 A'   90 A'   91 A'   92 A'   93 A'   94 A'   95 A'   96 A'                 
  0.953   0.965   0.997   0.997   1.034   1.044   1.046   1.092
 97 A'   98 A'   99 A'   29 A"  100 A'   30 A"  101 A'  102 A'                 
  1.157   1.163   1.193   1.213   1.238   1.302   1.310   1.336
 31 A"   32 A"  103 A'  104 A'  105 A'   33 A"  106 A'   34 A"                 
  1.353   1.364   1.373   1.397   1.398   1.436   1.446   1.482
 35 A"   36 A"  107 A'   37 A"  108 A'   38 A"  109 A'  110 A'                 
  1.488   1.518   1.685   1.699   1.736   1.748   1.810   1.825
111 A'  112 A'  113 A'  114 A'  115 A'   39 A"  116 A'   40 A"                 
  1.844   1.863   1.877   1.914   1.942   1.948   1.992   2.055
117 A'   41 A"  118 A'  119 A'  120 A'   42 A"  121 A'  122 A'                 
  2.076   2.119   2.140   2.164   2.221   2.231   2.260   2.283
123 A'  124 A'   43 A"  125 A'  126 A'  127 A'   44 A"  128 A'                 
  2.457   2.491   2.516   2.576   2.595   2.655   2.744   2.747
129 A'   45 A"  130 A'   46 A"  131 A'   47 A"   48 A"  132 A'                 
  2.773   2.868   2.897   2.935   2.948   2.988   3.012   3.083
133 A'  134 A'  135 A'  136 A'  137 A'  138 A'   49 A"   50 A"                 
  3.106   3.124   3.139   3.189   3.202   3.226   3.237   3.255
 51 A"  139 A'  140 A'   52 A"  141 A'  142 A'   53 A"  143 A'                 
  3.267   3.327   3.444   3.500   3.685   3.692   3.737   3.760
 54 A"  144 A'  145 A'  146 A'   55 A"   56 A"  147 A'  148 A'                 
  3.796   3.833   3.880   3.938   3.969   4.027   4.208   4.228
149 A'  150 A'  151 A'  152 A'  153 A'  154 A'  155 A'   57 A"                 
  4.293   4.329   4.406   4.518   4.932   5.076   5.212   5.353
 58 A"  156 A'  157 A'  158 A'  159 A'  160 A'  161 A'  162 A'                 
  5.469   5.557   5.563   5.603   5.633   5.695   5.775   5.816
163 A'   59 A"   60 A"  164 A'  165 A'  166 A'  167 A'  168 A'                 
  6.354   6.360   7.577   7.653   9.802   9.848  20.559  20.614
169 A'  170 A'  171 A'  172 A'  173 A'  174 A'  175 A'  176 A'                 
 20.643  20.802  30.081  30.167  40.800  40.841  80.115  80.155
177 A'  178 A'  179 A'  180 A'  181 A'  182 A'  183 A'  184 A'                 
 80.191  80.330 116.195 116.282 159.143 159.175 321.940 321.974
185 A'  186 A'  187 A'  188 A'  189 A'  190 A'  191 A'  192 A'                 
322.013 322.134 460.294 460.379 631.842 631.8681431.4931431.527
193 A'  194 A'  195 A'  196 A'  197 A'  198 A'  199 A'  200 A'                 
*******1431.6712012.7692012.8512759.2382759.2608749.7128749.748
201 A'  202 A'  203 A'  204 A'  205 A'  206 A'  207 A'  208 A'                 
*******8749.876********************************
209 A'  210 A'  211 A'  212 A'  213 A'  214 A'                                 
 --------------------------------------------------------------

          Ground-State Mulliken Net Atomic Charges

     Atom                 Charge (a.u.)    Spin (a.u.)
  --------------------------------------------------------
      1 C                     0.902563      -1.465821
      2 H                    -0.140771       0.583233
      3 H                     0.049460       0.268854
      4 H                     0.393838       0.019684
      5 C                    -0.325509       0.227317
      6 O                     0.175606       0.231597
      7 C                     0.136932      -0.703995
      8 O                     0.098068       0.293691
      9 N                    -0.694172       0.070745
     10 N                     0.078370       0.468462
     11 C                    -0.955446       2.016304
     12 H                     0.281061      -0.010072
  --------------------------------------------------------
  Sum of atomic charges =    -0.000000
  Sum of spin   charges =     2.000000

 -----------------------------------------------------------------
                    Cartesian Multipole Moments
 -----------------------------------------------------------------
    Charge (ESU x 10^10)
                -0.0000
    Dipole Moment (Debye)
         X       5.4424      Y       4.3272      Z       0.0000
       Tot       6.9530
    Quadrupole Moments (Debye-Ang)
        XX     -73.8572     XY     -17.1302     YY     -73.5432
        XZ      -0.0000     YZ      -0.0000     ZZ     -60.1106
    Octopole Moments (Debye-Ang^2)
       XXX      73.2018    XXY      37.9591    XYY      62.2871
       YYY     170.3658    XXZ       0.0000    XYZ       0.0000
       YYZ       0.0000    XZZ      21.6110    YZZ      42.8611
       ZZZ       0.0000
    Hexadecapole Moments (Debye-Ang^3)
      XXXX   -1045.6288   XXXY    -204.0765   XXYY    -405.4691
      XYYY    -250.0447   YYYY   -1166.4535   XXXZ      -0.0000
      XXYZ      -0.0000   XYYZ      -0.0000   YYYZ      -0.0000
      XXZZ    -197.7773   XYZZ     -54.2551   YYZZ    -224.6162
      XZZZ      -0.0000   YZZZ      -0.0000   ZZZZ    -233.1491
 -----------------------------------------------------------------
Archival summary:
1\1\n-62-29-4\SP\ProcedureUnspecified\BasisUnspecified\2244(3)\malop\ThuJun612:18:002019ThuJun612:18:002019\0\\#,ProcedureUnspecified,BasisUnspecified,\\0,3\N\H,1,1.01081\C,1,1.37966,2,115.327\O,3,1.21479,1,124.21,2,0,0\N,3,1.3852,1,112.713,2,180,0\H,5,1.00619,3,115.142,1,-180,0\C,5,1.37008,3,123.626,1,-0,0\H,7,1.07981,5,115.516,3,180,0\C,7,1.34802,5,121.979,3,-0,0\H,9,1.07615,7,121.525,5,-180,0\C,1,1.40335,2,116.035,3,-180,0\O,11,1.21832,1,120.541,2,0,0\\HF=-412.381973\\@

 Total job time:  4005.15s(wall), 9167.92s(cpu) 
 Thu Jun  6 12:18:00 2019

======= MOLDEN-FORMATTED INPUT FILE FOLLOWS =======
[Molden Format]
[Atoms] (Angs)
  C      1    6     -0.00714236     -1.70213747     -0.00000000
  H      2    1     -2.06882847     -1.44022412      0.00000000
  H      3    1     -0.12337987     -2.77567521      0.00000000
  H      4    1      0.04651892      1.98813947     -0.00000000
  C      5    6     -1.21953563      0.40211669      0.00000000
  O      6    8     -2.25921553      1.03043814      0.00000000
  C      7    6      1.28797806      0.34644937     -0.00000000
  O      8    8      2.31273661      1.00537216     -0.00000000
  N      9    7      0.03446295      0.97739857     -0.00000000
  N     10    7     -1.17287765     -0.98229824      0.00000000
  C     11    6      1.20107039     -1.10433419     -0.00000000
  H     12    1      2.11220096     -1.67699125     -0.00000000

======= END OF MOLDEN-FORMATTED INPUT FILE =======


        *************************************************************
        *                                                           *
        *  Thank you very much for using Q-Chem.  Have a nice day.  *
        *                                                           *
        *************************************************************


