                  Welcome to Q-Chem
     A Quantum Leap Into The Future Of Chemistry


 Q-Chem 5.2 (devel), Q-Chem, Inc., Pleasanton, CA (2019)

 Yihan Shao,  Zhengting Gan,  E. Epifanovsky,  A. T. B. Gilbert,  M. Wormit,  
 J. Kussmann,  A. W. Lange,  A. Behn,  Jia Deng,  Xintian Feng,  D. Ghosh,  
 M. Goldey,  P. R. Horn,  L. D. Jacobson,  I. Kaliman,  T. Kus,  A. Landau,  
 Jie Liu,  E. I. Proynov,  R. M. Richard,  R. P. Steele,  E. J. Sundstrom,  
 H. L. Woodcock III,  P. M. Zimmerman,  D. Zuev,  B. Albrecht,  E. Alguire,  
 S. A. Baeppler,  D. Barton,  Z. Benda,  Y. A. Bernard,  E. J. Berquist,  
 K. B. Bravaya,  H. Burton,  D. Casanova,  Chun-Min Chang,  Yunqing Chen,  
 A. Chien,  K. D. Closser,  M. P. Coons,  S. Coriani,  S. Dasgupta,  
 A. L. Dempwolff,  M. Diedenhofen,  Hainam Do,  R. G. Edgar,  Po-Tung Fang,  
 S. Faraji,  S. Fatehi,  Qingguo Feng,  K. D. Fenk,  J. Fosso-Tande,  
 J. Gayvert,  Qinghui Ge,  A. Ghysels,  G. Gidofalvi,  J. Gomes,  
 J. Gonthier,  A. Gunina,  D. Hait,  M. W. D. Hanson-Heine,  
 P. H. P. Harbach,  A. W. Hauser,  M. F. Herbst,  J. E. Herr,  
 E. G. Hohenstein,  Z. C. Holden,  Kerwin Hui,  B. C. Huynh,  T.-C. Jagau,  
 Hyunjun Ji,  B. Kaduk,  K. Khistyaev,  Jaehoon Kim,  P. Klunzinger,  K. Koh,  
 D. Kosenkov,  L. Koulias,  T. Kowalczyk,  C. M. Krauter,  A. Kunitsa,  
 Ka Un Lao,  A. Laurent,  K. V. Lawler,  Joonho Lee,  D. Lefrancois,  
 S. Lehtola,  D. S. Levine,  Yi-Pei Li,  You-Sheng Lin,  Fenglai Liu,  
 E. Livshits,  A. Luenser,  P. Manohar,  E. Mansoor,  S. F. Manzer,  
 Shan-Ping Mao,  Yuezhi Mao,  N. Mardirossian,  A. V. Marenich,  
 T. Markovich,  L. A. Martinez-Martinez,  S. A. Maurer,  N. J. Mayhall,  
 S. C. McKenzie,  J.-M. Mewes,  P. Morgante,  A. F. Morrison,  
 J. W. Mullinax,  K. Nanda,  T. S. Nguyen-Beck,  R. Olivares-Amaya,  
 J. A. Parkhill,  Zheng Pei,  T. M. Perrine,  F. Plasser,  P. Pokhilko,  
 S. Prager,  A. Prociuk,  E. Ramos,  D. R. Rehn,  F. Rob,  M. Scheurer,  
 M. Schneider,  N. Sergueev,  S. M. Sharada,  S. Sharma,  D. W. Small,  
 T. Stauch,  T. Stein,  Yu-Chuan Su,  A. J. W. Thom,  A. Tkatchenko,  
 T. Tsuchimochi,  N. M. Tubman,  L. Vogt,  M. L. Vidal,  O. Vydrov,  
 M. A. Watson,  J. Wenzel,  M. de Wergifosse,  T. A. Wesolowski,  A. White,  
 J. Witte,  A. Yamada,  Jun Yang,  K. Yao,  S. Yeganeh,  S. R. Yost,  
 Zhi-Qiang You,  A. Zech,  Igor Ying Zhang,  Xing Zhang,  Yan Zhao,  
 Ying Zhu,  B. R. Brooks,  G. K. L. Chan,  C. J. Cramer,  M. S. Gordon,  
 W. J. Hehre,  A. Klamt,  M. W. Schmidt,  C. D. Sherrill,  D. G. Truhlar,  
 A. Aspuru-Guzik,  R. Baer,  A. T. Bell,  N. A. Besley,  Jeng-Da Chai,  
 A. E. DePrince, III,  R. A. DiStasio Jr.,  A. Dreuw,  B. D. Dunietz,  
 T. R. Furlani,  Chao-Ping Hsu,  Yousung Jung,  Jing Kong,  D. S. Lambrecht,  
 WanZhen Liang,  C. Ochsenfeld,  V. A. Rassolov,  L. V. Slipchenko,  
 J. E. Subotnik,  T. Van Voorhis,  J. M. Herbert,  A. I. Krylov,  
 P. M. W. Gill,  M. Head-Gordon

 Contributors to earlier versions of Q-Chem not listed above: 
 R. D. Adamson,  B. Austin,  J. Baker,  G. J. O. Beran,  K. Brandhorst,  
 S. T. Brown,  E. F. C. Byrd,  A. K. Chakraborty,  C.-L. Cheng,  
 Siu Hung Chien,  D. M. Chipman,  D. L. Crittenden,  H. Dachsel,  
 R. J. Doerksen,  A. D. Dutoi,  L. Fusti-Molnar,  W. A. Goddard III,  
 A. Golubeva-Zadorozhnaya,  S. R. Gwaltney,  G. Hawkins,  A. Heyden,  
 S. Hirata,  G. Kedziora,  F. J. Keil,  C. Kelley,  Jihan Kim,  R. A. King,  
 R. Z. Khaliullin,  P. P. Korambath,  W. Kurlancheek,  A. M. Lee,  M. S. Lee,  
 S. V. Levchenko,  Ching Yeh Lin,  D. Liotard,  R. C. Lochan,  I. Lotan,  
 P. E. Maslen,  N. Nair,  D. P. O'Neill,  D. Neuhauser,  E. Neuscamman,  
 C. M. Oana,  R. Olson,  B. Peters,  R. Peverati,  P. A. Pieniazek,  
 Y. M. Rhee,  J. Ritchie,  M. A. Rohrdanz,  E. Rosta,  N. J. Russ,  
 H. F. Schaefer III,  N. E. Schultz,  N. Shenvi,  A. C. Simmonett,  A. Sodt,  
 D. Stuck,  K. S. Thanthiriwatte,  V. Vanovschi,  Tao Wang,  A. Warshel,  
 C. F. Williams,  Q. Wu,  X. Xu,  W. Zhang

 Please cite Q-Chem as follows:
 Y. Shao et al., Mol. Phys. 113, 184-215 (2015)
 DOI: 10.1080/00268976.2014.952696

 Q-Chem 5.2.0 for Intel X86 EM64T Linux

 Parts of Q-Chem use Armadillo 8.300.2 (Tropical Shenanigans).
 http://arma.sourceforge.net/

 Q-Chem begins on Wed Jun  5 10:01:44 2019  

n-62-29-10
Host: 0

     Scratch files written to /work1/malop/qc_8384517.hnode2/qchem29551//
NAlpha2: 58
NElect   58
Mult     1

Checking the input file for inconsistencies... 	...done.

--------------------------------------------------------------
User input:
--------------------------------------------------------------
$comment
Uracil XPS C K-edge 6-311(2+,+)G** (ucC)
geometry optimizion: mp2/cc-pvtz
$end

$molecule
0 1
C        0.052842   -1.701332    0.000000
H       -2.016793   -1.512231    0.000000
H       -0.025494   -2.778299    0.000000
H       -0.023568    1.988544    0.000000
C       -1.232948    0.358893    0.000000
O       -2.294123    0.950188    0.000000
C        1.274970    0.391620    0.000000
O        2.275873    1.086244    0.000000
N        0.000000    0.978006    0.000000
N       -1.137535   -1.023018    0.000000
C        1.239239   -1.061325    0.000000
H        2.169983   -1.601520    0.000000
$end

$rem
   JOB_TYPE  =  SP
   BASIS  = general
   print_general_basis = true
   METHOD  =  EOM-CCSD
   CVS_IP_STATES = [20,10]
   EE_STATES = [3,3]
   eom_davidson_convergence = 4
   cvs_eom_shift = 10500
   n_frozen_core = fc
   cc_trans_prop = true
   cc_memory = 40000
   cc_do_dyson = true
   MOLDEN_FORMAT = TRUE
$end

$basis
H    0
6-311(2+,+)G**
****
O    0
S    1    1.000000
   8.58850000E+03    1.89515000E-03
S    1    1.000000
   1.29723000E+03    1.43859000E-02
S    1    1.000000
   2.99296000E+02    7.07320000E-02
S    1    1.000000
   8.73771000E+01    2.40001000E-01
S    1    1.000000
   2.56789000E+01    5.94797000E-01
S    1    1.000000
   3.74004000E+00    2.80802000E-01
SP   3    1.000000
   4.21175000E+01    1.13889000E-01   3.65114000E-02
   9.62837000E+00    9.20811000E-01   2.37153000E-01
   2.85332000E+00   -3.27447000E-03   8.19702000E-01
SP   1    1.000000
   9.05661000E-01    1.00000000E+00   1.00000000E+00
SP   1    1.000000
   2.55611000E-01    1.00000000E+00   1.00000000E+00
SP   1    1.000000
   8.45000000E-02    1.00000000E+00   1.00000000E+00
SP   1    1.000000
   2.54518072E-02    1.00000000E+00   1.00000000E+00
D    1    1.000000
   1.29200000E+00    1.00000000E+00
****
N    0
S    1    1.000000
   6.29348000E+03    1.96979000E-03
S    1    1.000000
   9.49044000E+02    1.49613000E-02
S    1    1.000000
   2.18776000E+02    7.35006000E-02
S    1    1.000000
   6.36916000E+01    2.48937000E-01
S    1    1.000000
   1.88282000E+01    6.02460000E-01
S    1    1.000000
   2.72023000E+00    2.56202000E-01
SP   3    1.000000
   3.06331000E+01    1.11906000E-01   3.83119000E-02
   7.02614000E+00    9.21666000E-01   2.37403000E-01
   2.11205000E+00   -2.56919000E-03   8.17592000E-01
SP   1    1.000000
   6.84009000E-01    1.00000000E+00   1.00000000E+00
SP   1    1.000000
   2.00878000E-01    1.00000000E+00   1.00000000E+00
SP   1    1.000000
   6.39000000E-02    1.00000000E+00   1.00000000E+00
SP   1    1.000000
   1.92469880E-02    1.00000000E+00   1.00000000E+00
D    1    1.000000
   9.13000000E-01    1.00000000E+00
****
C    0
S    1    1.000000
   4.56324000E+03    1.96665000E-03
S    1    1.000000
   6.82024000E+02    1.52306000E-02
S    1    1.000000
   1.54973000E+02    7.61269000E-02
S    1    1.000000
   4.44553000E+01    2.60801000E-01
S    1    1.000000
   1.30290000E+01    6.16462000E-01
S    1    1.000000
   1.82773000E+00    2.21006000E-01
SP   3    1.000000
   2.09642000E+01    1.14660000E-01   4.02487000E-02
   4.80331000E+00    9.19999000E-01   2.37594000E-01
   1.45933000E+00   -3.03068000E-03   8.15854000E-01
SP   1    1.000000
   4.83456000E-01    1.00000000E+00   1.00000000E+00
SP   1    1.000000
   1.45585000E-01    1.00000000E+00   1.00000000E+00
SP   1    1.000000
   4.38000000E-02    1.00000000E+00   1.00000000E+00
SP   1    1.000000
   1.31927711E-02    1.00000000E+00   1.00000000E+00
D    1    1.000000
   6.26000000E-01    1.00000000E+00
****
$end
--------------------------------------------------------------
 ----------------------------------------------------------------
             Standard Nuclear Orientation (Angstroms)
    I     Atom           X                Y                Z
 ----------------------------------------------------------------
    1      C      -0.0071423615    -1.7021374661    -0.0000000000
    2      H      -2.0688284730    -1.4402241233     0.0000000000
    3      H      -0.1233798667    -2.7756752113     0.0000000000
    4      H       0.0465189185     1.9881394681    -0.0000000000
    5      C      -1.2195356258     0.4021166886     0.0000000000
    6      O      -2.2592155329     1.0304381418     0.0000000000
    7      C       1.2879780632     0.3464493659    -0.0000000000
    8      O       2.3127366072     1.0053721559    -0.0000000000
    9      N       0.0344629504     0.9773985746    -0.0000000000
   10      N      -1.1728776526    -0.9822982369     0.0000000000
   11      C       1.2010703878    -1.1043341925    -0.0000000000
   12      H       2.1122009607    -1.6769912546    -0.0000000000
 ----------------------------------------------------------------
 Molecular Point Group                 Cs    NOp =  2
 Largest Abelian Subgroup              Cs    NOp =  2
 Nuclear Repulsion Energy =         357.01163035 hartrees
 There are       29 alpha and       29 beta electrons
 Requested basis set is non-standard
Basis set in general basis input format:
-----------------------------------------------------------------------
$basis
C    0
S    1    1.000000
   4.56324000E+03    1.96665000E-03 
S    1    1.000000
   6.82024000E+02    1.52306000E-02 
S    1    1.000000
   1.54973000E+02    7.61269000E-02 
S    1    1.000000
   4.44553000E+01    2.60801000E-01 
S    1    1.000000
   1.30290000E+01    6.16462000E-01 
S    1    1.000000
   1.82773000E+00    2.21006000E-01 
SP   3    1.000000
   2.09642000E+01    1.14660000E-01   4.02487000E-02 
   4.80331000E+00    9.19999000E-01   2.37594000E-01 
   1.45933000E+00   -3.03068000E-03   8.15854000E-01 
SP   1    1.000000
   4.83456000E-01    1.00000000E+00   1.00000000E+00 
SP   1    1.000000
   1.45585000E-01    1.00000000E+00   1.00000000E+00 
SP   1    1.000000
   4.38000000E-02    1.00000000E+00   1.00000000E+00 
SP   1    1.000000
   1.31927711E-02    1.00000000E+00   1.00000000E+00 
D    1    1.000000
   6.26000000E-01    1.00000000E+00 
****
H    0
S    3    1.000000
   3.38650000E+01    2.54938000E-02 
   5.09479000E+00    1.90373000E-01 
   1.15879000E+00    8.52161000E-01 
S    1    1.000000
   3.25840000E-01    1.00000000E+00 
S    1    1.000000
   1.02741000E-01    1.00000000E+00 
S    1    1.000000
   3.60000000E-02    1.00000000E+00 
P    1    1.000000
   7.50000000E-01    1.00000000E+00 
****
H    0
S    3    1.000000
   3.38650000E+01    2.54938000E-02 
   5.09479000E+00    1.90373000E-01 
   1.15879000E+00    8.52161000E-01 
S    1    1.000000
   3.25840000E-01    1.00000000E+00 
S    1    1.000000
   1.02741000E-01    1.00000000E+00 
S    1    1.000000
   3.60000000E-02    1.00000000E+00 
P    1    1.000000
   7.50000000E-01    1.00000000E+00 
****
H    0
S    3    1.000000
   3.38650000E+01    2.54938000E-02 
   5.09479000E+00    1.90373000E-01 
   1.15879000E+00    8.52161000E-01 
S    1    1.000000
   3.25840000E-01    1.00000000E+00 
S    1    1.000000
   1.02741000E-01    1.00000000E+00 
S    1    1.000000
   3.60000000E-02    1.00000000E+00 
P    1    1.000000
   7.50000000E-01    1.00000000E+00 
****
C    0
S    1    1.000000
   4.56324000E+03    1.96665000E-03 
S    1    1.000000
   6.82024000E+02    1.52306000E-02 
S    1    1.000000
   1.54973000E+02    7.61269000E-02 
S    1    1.000000
   4.44553000E+01    2.60801000E-01 
S    1    1.000000
   1.30290000E+01    6.16462000E-01 
S    1    1.000000
   1.82773000E+00    2.21006000E-01 
SP   3    1.000000
   2.09642000E+01    1.14660000E-01   4.02487000E-02 
   4.80331000E+00    9.19999000E-01   2.37594000E-01 
   1.45933000E+00   -3.03068000E-03   8.15854000E-01 
SP   1    1.000000
   4.83456000E-01    1.00000000E+00   1.00000000E+00 
SP   1    1.000000
   1.45585000E-01    1.00000000E+00   1.00000000E+00 
SP   1    1.000000
   4.38000000E-02    1.00000000E+00   1.00000000E+00 
SP   1    1.000000
   1.31927711E-02    1.00000000E+00   1.00000000E+00 
D    1    1.000000
   6.26000000E-01    1.00000000E+00 
****
O    0
S    1    1.000000
   8.58850000E+03    1.89515000E-03 
S    1    1.000000
   1.29723000E+03    1.43859000E-02 
S    1    1.000000
   2.99296000E+02    7.07320000E-02 
S    1    1.000000
   8.73771000E+01    2.40001000E-01 
S    1    1.000000
   2.56789000E+01    5.94797000E-01 
S    1    1.000000
   3.74004000E+00    2.80802000E-01 
SP   3    1.000000
   4.21175000E+01    1.13889000E-01   3.65114000E-02 
   9.62837000E+00    9.20811000E-01   2.37153000E-01 
   2.85332000E+00   -3.27447000E-03   8.19702000E-01 
SP   1    1.000000
   9.05661000E-01    1.00000000E+00   1.00000000E+00 
SP   1    1.000000
   2.55611000E-01    1.00000000E+00   1.00000000E+00 
SP   1    1.000000
   8.45000000E-02    1.00000000E+00   1.00000000E+00 
SP   1    1.000000
   2.54518072E-02    1.00000000E+00   1.00000000E+00 
D    1    1.000000
   1.29200000E+00    1.00000000E+00 
****
C    0
S    1    1.000000
   4.56324000E+03    1.96665000E-03 
S    1    1.000000
   6.82024000E+02    1.52306000E-02 
S    1    1.000000
   1.54973000E+02    7.61269000E-02 
S    1    1.000000
   4.44553000E+01    2.60801000E-01 
S    1    1.000000
   1.30290000E+01    6.16462000E-01 
S    1    1.000000
   1.82773000E+00    2.21006000E-01 
SP   3    1.000000
   2.09642000E+01    1.14660000E-01   4.02487000E-02 
   4.80331000E+00    9.19999000E-01   2.37594000E-01 
   1.45933000E+00   -3.03068000E-03   8.15854000E-01 
SP   1    1.000000
   4.83456000E-01    1.00000000E+00   1.00000000E+00 
SP   1    1.000000
   1.45585000E-01    1.00000000E+00   1.00000000E+00 
SP   1    1.000000
   4.38000000E-02    1.00000000E+00   1.00000000E+00 
SP   1    1.000000
   1.31927711E-02    1.00000000E+00   1.00000000E+00 
D    1    1.000000
   6.26000000E-01    1.00000000E+00 
****
O    0
S    1    1.000000
   8.58850000E+03    1.89515000E-03 
S    1    1.000000
   1.29723000E+03    1.43859000E-02 
S    1    1.000000
   2.99296000E+02    7.07320000E-02 
S    1    1.000000
   8.73771000E+01    2.40001000E-01 
S    1    1.000000
   2.56789000E+01    5.94797000E-01 
S    1    1.000000
   3.74004000E+00    2.80802000E-01 
SP   3    1.000000
   4.21175000E+01    1.13889000E-01   3.65114000E-02 
   9.62837000E+00    9.20811000E-01   2.37153000E-01 
   2.85332000E+00   -3.27447000E-03   8.19702000E-01 
SP   1    1.000000
   9.05661000E-01    1.00000000E+00   1.00000000E+00 
SP   1    1.000000
   2.55611000E-01    1.00000000E+00   1.00000000E+00 
SP   1    1.000000
   8.45000000E-02    1.00000000E+00   1.00000000E+00 
SP   1    1.000000
   2.54518072E-02    1.00000000E+00   1.00000000E+00 
D    1    1.000000
   1.29200000E+00    1.00000000E+00 
****
N    0
S    1    1.000000
   6.29348000E+03    1.96979000E-03 
S    1    1.000000
   9.49044000E+02    1.49613000E-02 
S    1    1.000000
   2.18776000E+02    7.35006000E-02 
S    1    1.000000
   6.36916000E+01    2.48937000E-01 
S    1    1.000000
   1.88282000E+01    6.02460000E-01 
S    1    1.000000
   2.72023000E+00    2.56202000E-01 
SP   3    1.000000
   3.06331000E+01    1.11906000E-01   3.83119000E-02 
   7.02614000E+00    9.21666000E-01   2.37403000E-01 
   2.11205000E+00   -2.56919000E-03   8.17592000E-01 
SP   1    1.000000
   6.84009000E-01    1.00000000E+00   1.00000000E+00 
SP   1    1.000000
   2.00878000E-01    1.00000000E+00   1.00000000E+00 
SP   1    1.000000
   6.39000000E-02    1.00000000E+00   1.00000000E+00 
SP   1    1.000000
   1.92469880E-02    1.00000000E+00   1.00000000E+00 
D    1    1.000000
   9.13000000E-01    1.00000000E+00 
****
N    0
S    1    1.000000
   6.29348000E+03    1.96979000E-03 
S    1    1.000000
   9.49044000E+02    1.49613000E-02 
S    1    1.000000
   2.18776000E+02    7.35006000E-02 
S    1    1.000000
   6.36916000E+01    2.48937000E-01 
S    1    1.000000
   1.88282000E+01    6.02460000E-01 
S    1    1.000000
   2.72023000E+00    2.56202000E-01 
SP   3    1.000000
   3.06331000E+01    1.11906000E-01   3.83119000E-02 
   7.02614000E+00    9.21666000E-01   2.37403000E-01 
   2.11205000E+00   -2.56919000E-03   8.17592000E-01 
SP   1    1.000000
   6.84009000E-01    1.00000000E+00   1.00000000E+00 
SP   1    1.000000
   2.00878000E-01    1.00000000E+00   1.00000000E+00 
SP   1    1.000000
   6.39000000E-02    1.00000000E+00   1.00000000E+00 
SP   1    1.000000
   1.92469880E-02    1.00000000E+00   1.00000000E+00 
D    1    1.000000
   9.13000000E-01    1.00000000E+00 
****
C    0
S    1    1.000000
   4.56324000E+03    1.96665000E-03 
S    1    1.000000
   6.82024000E+02    1.52306000E-02 
S    1    1.000000
   1.54973000E+02    7.61269000E-02 
S    1    1.000000
   4.44553000E+01    2.60801000E-01 
S    1    1.000000
   1.30290000E+01    6.16462000E-01 
S    1    1.000000
   1.82773000E+00    2.21006000E-01 
SP   3    1.000000
   2.09642000E+01    1.14660000E-01   4.02487000E-02 
   4.80331000E+00    9.19999000E-01   2.37594000E-01 
   1.45933000E+00   -3.03068000E-03   8.15854000E-01 
SP   1    1.000000
   4.83456000E-01    1.00000000E+00   1.00000000E+00 
SP   1    1.000000
   1.45585000E-01    1.00000000E+00   1.00000000E+00 
SP   1    1.000000
   4.38000000E-02    1.00000000E+00   1.00000000E+00 
SP   1    1.000000
   1.31927711E-02    1.00000000E+00   1.00000000E+00 
D    1    1.000000
   6.26000000E-01    1.00000000E+00 
****
H    0
S    3    1.000000
   3.38650000E+01    2.54938000E-02 
   5.09479000E+00    1.90373000E-01 
   1.15879000E+00    8.52161000E-01 
S    1    1.000000
   3.25840000E-01    1.00000000E+00 
S    1    1.000000
   1.02741000E-01    1.00000000E+00 
S    1    1.000000
   3.60000000E-02    1.00000000E+00 
P    1    1.000000
   7.50000000E-01    1.00000000E+00 
****
$end
-----------------------------------------------------------------------
 There are 116 shells and 276 basis functions
 WARNING: the default MEM_TOTAL is adjusted according to given MEM_STATIC!
 Total memory of 40192 MB is distributed as follows: 
   MEM_STATIC is set to 192 MB
   QALLOC/CCMAN JOB total memory use is  40000 MB
 Warning: actual memory use might exceed 40192 MB

 Total QAlloc Memory Limit  40192 MB
 Mega-Array Size       188 MB
 MEM_STATIC part       192 MB

                       Distance Matrix (Angstroms)
             C (  1)   H (  2)   H (  3)   H (  4)   C (  5)   O (  6)
   H (  2)  2.078256
   H (  3)  1.079812  2.359703
   H (  4)  3.690667  4.028445  4.766843
   C (  5)  2.428535  2.028674  3.361535  2.029375
   O (  6)  3.541017  2.477987  4.364435  2.496718  1.214793
   C (  7)  2.423643  3.802677  3.426309  2.058244  2.508132  3.612537
   O (  8)  3.565452  5.017873  4.497886  2.470136  3.583415  4.572021
   N (  9)  2.679859  3.204487  3.756392  1.010813  1.379660  2.294292
   N ( 10)  1.370076  1.006193  2.077895  3.210986  1.385201  2.287190
   C ( 11)  1.348016  3.287105  2.132498  3.300967  2.851092  4.065813
   H ( 12)  2.119492  4.187728  2.490969  4.207164  3.927233  5.141931
             C (  7)   O (  8)   N (  9)   N ( 10)   C ( 11)
   O (  8)  1.218322
   N (  9)  1.403352  2.278445
   N ( 10)  2.796673  4.012523  2.301756
   C ( 11)  1.453384  2.384672  2.386333  2.377083
   H ( 12)  2.184870  2.689849  3.370872  3.357728  1.076148

 A cutoff of  1.0D-14 yielded   5442 shell pairs
 There are     35779 function pairs (     37954 Cartesian)
 Smallest overlap matrix eigenvalue = 2.79E-07
 Linear dependence detected in AO basis
 Tighter screening thresholds may be required for diffuse basis sets
 Use S2THRESH > 14 and THRESH = 14 in case of SCF convergence issues
 Number of orthogonalized atomic orbitals = 274
 Maximum deviation from orthogonality = 1.662E-10

 Scale SEOQF with 1.000000e-01/1.000000e-01/1.000000e-01

 Standard Electronic Orientation quadrupole field applied
 Nucleus-field energy     =     0.0000000098 hartrees
 Guess MOs from core Hamiltonian diagonalization

 -----------------------------------------------------------------------
  General SCF calculation program by
  Eric Jon Sundstrom, Paul Horn, Yuezhi Mao, Dmitri Zuev, Alec White,
  David Stuck, Shaama M.S., Shane Yost, Joonho Lee, David Small,
  Daniel Levine, Susi Lehtola, Hugh Burton, Evgeny Epifanovsky
 -----------------------------------------------------------------------
 Hartree-Fock
 using 4 threads for integral computing
 -------------------------------------------------------
 OpenMP Integral computing Module                
 Release: version 2.0, May 2017, Q-Chem Inc. Pleasanton 
 -------------------------------------------------------
 A restricted SCF calculation will be
 performed using DIIS
 SCF converges when DIIS error is below 1.0e-08
 ---------------------------------------
  Cycle       Energy         DIIS error
 ---------------------------------------
    1    -317.6975975837      1.18e-01  
    2    -296.6539414674      6.20e-02  
    3    -298.4325676519      7.94e-02  
    4    -386.6563647391      4.37e-02  
    5    -406.3540777258      2.27e-02  
    6    -409.8825654410      1.65e-02  
    7    -412.4527394886      2.86e-03  
    8    -412.5540542321      1.08e-03  
    9    -412.5713955530      6.06e-04  
   10    -412.5782834312      2.50e-04  
   11    -412.5798894298      1.35e-04  
   12    -412.5802387821      5.44e-05  
   13    -412.5803259988      2.02e-05  
   14    -412.5803330363      5.99e-06  
   15    -412.5803334671      1.83e-06  
   16    -412.5803335191      5.97e-07  
   17    -412.5803335244      2.14e-07  
   18    -412.5803335254      7.82e-08  
   19    -412.5803335256      1.86e-08  
   20    -412.5803335256      5.20e-09  Convergence criterion met
 ---------------------------------------
 SCF time:   CPU 169.56s  wall 46.00s 
 SCF   energy in the final basis set =     -412.5803335256
 Total energy in the final basis set =     -412.5803335256


 ------------------------------------------------------------------------------

   CCMAN2: suite of methods based on coupled cluster
           and equation of motion theories.

   Components:
   * libvmm-1.3-trunk
     by Evgeny Epifanovsky, Ilya Kaliman.
   * libtensor-2.5-trunk
     by Evgeny Epifanovsky, Michael Wormit, Dmitry Zuev, Sam Manzer, 
        Ilya Kaliman.
   * libcc-2.5-trunk
     by Evgeny Epifanovsky, Arik Landau, Tomasz Kus, Kirill Khistyaev, 
        Dmitry Zuev, Prashant Manohar, Xintian Feng, Anna Krylov, 
        Matthew Goldey, Alec White, Thomas Jagau, Kaushik Nanda, 
        Anastasia Gunina, Alexander Kunitsa, Joonho Lee.

   CCMAN original authors:
   Anna I. Krylov, C. David Sherrill, Steven R. Gwaltney,
   Edward F. C. Byrd (2000)
   Sergey V. Levchenko, Lyudmila V. Slipchenko, Tao Wang,
   Ana-Maria C. Cristian (2003)
   Piotr A. Pieniazek, C. Melania Oana, Evgeny Epifanovsky (2007)
   Prashant Manohar (2009)

 ------------------------------------------------------------------------------


 Allocating and initializing 40000MB of RAM...
 Calculation will run on 4 cores.


 Alpha MOs, Restricted
 -- Occupied --                  
-20.550 -20.545 -15.649 -15.632 -11.427 -11.388 -11.346 -11.261
  1 A'    2 A'    3 A'    4 A'    5 A'    6 A'    7 A'    8 A'                 
 -1.442  -1.404  -1.318  -1.250  -1.093  -0.938  -0.906  -0.812
  9 A'   10 A'   11 A'   12 A'   13 A'   14 A'   15 A'   16 A'                 
 -0.770  -0.718  -0.681  -0.671  -0.657  -0.619  -0.605  -0.573
 17 A'   18 A'   19 A'    1 A"   20 A'   21 A'   22 A'    2 A"                 
 -0.528  -0.487  -0.452  -0.438  -0.371
  3 A"   23 A'   24 A'    4 A"    5 A"                                         
 -- Virtual --                   
  0.005   0.019   0.020   0.022   0.031   0.033   0.035   0.036
 25 A'   26 A'    6 A"   27 A'   28 A'   29 A'   30 A'    7 A"                 
  0.038   0.046   0.047   0.049   0.053   0.054   0.055   0.068
  8 A"   31 A'   32 A'   33 A'   34 A'    9 A"   35 A'   36 A'                 
  0.072   0.072   0.079   0.085   0.086   0.088   0.095   0.097
 10 A"   37 A'   11 A"   38 A'   12 A"   39 A'   40 A'   41 A'                 
  0.112   0.116   0.118   0.120   0.127   0.131   0.134   0.137
 13 A"   14 A"   42 A'   43 A'   44 A'   45 A'   46 A'   47 A'                 
  0.138   0.155   0.162   0.164   0.172   0.184   0.189   0.195
 48 A'   15 A"   49 A'   50 A'   16 A"   51 A'   17 A"   52 A'                 
  0.209   0.210   0.224   0.230   0.235   0.241   0.243   0.260
 53 A'   18 A"   54 A'   55 A'   56 A'   19 A"   57 A'   58 A'                 
  0.266   0.270   0.278   0.279   0.286   0.296   0.300   0.333
 59 A'   60 A'   20 A"   61 A'   62 A'   21 A"   63 A'   22 A"                 
  0.333   0.347   0.373   0.388   0.391   0.405   0.410   0.410
 64 A'   65 A'   66 A'   67 A'   68 A'   69 A'   23 A"   70 A'                 
  0.420   0.422   0.441   0.449   0.455   0.463   0.481   0.482
 24 A"   71 A'   72 A'   73 A'   74 A'   75 A'   76 A'   77 A'                 
  0.505   0.529   0.545   0.558   0.615   0.630   0.655   0.706
 78 A'   79 A'   80 A'   81 A'   82 A'   83 A'   84 A'   85 A'                 
  0.734   0.740   0.761   0.776   0.778   0.799   0.822   0.824
 86 A'   25 A"   87 A'   26 A"   88 A'   27 A"   28 A"   89 A'                 
  0.878   0.888   0.938   0.963   0.971   0.979   1.008   1.015
 90 A'   91 A'   92 A'   93 A'   94 A'   95 A'   96 A'   97 A'                 
  1.029   1.042   1.061   1.093   1.100   1.114   1.159   1.227
 98 A'   29 A"   99 A'   30 A"  100 A'  101 A'  102 A'   31 A"                 
  1.242   1.245   1.270   1.301   1.368   1.370   1.393   1.406
 32 A"  103 A'  104 A'  105 A'  106 A'   33 A"   34 A"   35 A"                 
  1.421   1.441   1.460   1.464   1.513   1.515   1.543   1.557
 36 A"  107 A'  108 A'   37 A"   38 A"  109 A'  110 A'  111 A'                 
  1.583   1.760   1.777   1.803   1.814   1.877   1.899   1.915
112 A'  113 A'  114 A'  115 A'   39 A"  116 A'   40 A"  117 A'                 
  1.929   1.952   1.980   2.013   2.014   2.067   2.124   2.143
 41 A"  118 A'  119 A'   42 A"  120 A'  121 A'  122 A'  123 A'                 
  2.186   2.223   2.236   2.283   2.299   2.340   2.358   2.532
124 A'   43 A"  125 A'  126 A'  127 A'   44 A"  128 A'  129 A'                 
  2.566   2.589   2.643   2.668   2.728   2.807   2.822   2.851
 45 A"  130 A'   46 A"  131 A'   47 A"  132 A'   48 A"  133 A'                 
  2.932   2.957   3.006   3.019   3.048   3.094   3.168   3.181
134 A'  135 A'  136 A'  137 A'  138 A'   49 A"   50 A"  139 A'                 
  3.184   3.211   3.263   3.271   3.297   3.310   3.325   3.347
 51 A"  140 A'   52 A"  141 A'  142 A'   53 A"  143 A'   54 A"                 
  3.401   3.515   3.588   3.756   3.766   3.819   3.840   3.876
144 A'  145 A'  146 A'   55 A"   56 A"  147 A'  148 A'  149 A'                 
  3.914   3.959   4.017   4.049   4.106   4.288   4.305   4.364
150 A'  151 A'  152 A'  153 A'  154 A'  155 A'   57 A"   58 A"                 
  4.411   4.485   4.605   5.012   5.158   5.288   5.441   5.553
156 A'  157 A'  158 A'  159 A'  160 A'  161 A'  162 A'  163 A'                 
  5.625   5.633   5.690   5.713   5.782   5.864   5.902   6.438
 59 A"   60 A"  164 A'  165 A'  166 A'  167 A'  168 A'  169 A'                 
  6.445   7.668   7.729   9.888   9.934  20.639  20.695  20.726
170 A'  171 A'  172 A'  173 A'  174 A'  175 A'  176 A'  177 A'                 
 20.897  30.195  30.235  40.894  40.935  80.190  80.235  80.273
178 A'  179 A'  180 A'  181 A'  182 A'  183 A'  184 A'  185 A'                 
 80.428 116.314 116.350 159.240 159.273 322.013 322.053 322.094
186 A'  187 A'  188 A'  189 A'  190 A'  191 A'  192 A'  193 A'                 
322.233 460.413 460.445 631.938 631.9651431.5641431.6041431.646
194 A'  195 A'  196 A'  197 A'  198 A'  199 A'  200 A'  201 A'                 
*******2012.8872012.9162759.3342759.3578749.7838749.8248749.866
202 A'  203 A'  204 A'  205 A'  206 A'  207 A'  208 A'  209 A'                 
***************************************
210 A'  211 A'  212 A'  213 A'  214 A'                                         

 Beta MOs, Restricted
 -- Occupied --                  
-20.550 -20.545 -15.649 -15.632 -11.427 -11.388 -11.346 -11.261
  1 A'    2 A'    3 A'    4 A'    5 A'    6 A'    7 A'    8 A'                 
 -1.442  -1.404  -1.318  -1.250  -1.093  -0.938  -0.906  -0.812
  9 A'   10 A'   11 A'   12 A'   13 A'   14 A'   15 A'   16 A'                 
 -0.770  -0.718  -0.681  -0.671  -0.657  -0.619  -0.605  -0.573
 17 A'   18 A'   19 A'    1 A"   20 A'   21 A'   22 A'    2 A"                 
 -0.528  -0.487  -0.452  -0.438  -0.371
  3 A"   23 A'   24 A'    4 A"    5 A"                                         
 -- Virtual --                   
  0.005   0.019   0.020   0.022   0.031   0.033   0.035   0.036
 25 A'   26 A'    6 A"   27 A'   28 A'   29 A'   30 A'    7 A"                 
  0.038   0.046   0.047   0.049   0.053   0.054   0.055   0.068
  8 A"   31 A'   32 A'   33 A'   34 A'    9 A"   35 A'   36 A'                 
  0.072   0.072   0.079   0.085   0.086   0.088   0.095   0.097
 10 A"   37 A'   11 A"   38 A'   12 A"   39 A'   40 A'   41 A'                 
  0.112   0.116   0.118   0.120   0.127   0.131   0.134   0.137
 13 A"   14 A"   42 A'   43 A'   44 A'   45 A'   46 A'   47 A'                 
  0.138   0.155   0.162   0.164   0.172   0.184   0.189   0.195
 48 A'   15 A"   49 A'   50 A'   16 A"   51 A'   17 A"   52 A'                 
  0.209   0.210   0.224   0.230   0.235   0.241   0.243   0.260
 53 A'   18 A"   54 A'   55 A'   56 A'   19 A"   57 A'   58 A'                 
  0.266   0.270   0.278   0.279   0.286   0.296   0.300   0.333
 59 A'   60 A'   20 A"   61 A'   62 A'   21 A"   63 A'   22 A"                 
  0.333   0.347   0.373   0.388   0.391   0.405   0.410   0.410
 64 A'   65 A'   66 A'   67 A'   68 A'   69 A'   23 A"   70 A'                 
  0.420   0.422   0.441   0.449   0.455   0.463   0.481   0.482
 24 A"   71 A'   72 A'   73 A'   74 A'   75 A'   76 A'   77 A'                 
  0.505   0.529   0.545   0.558   0.615   0.630   0.655   0.706
 78 A'   79 A'   80 A'   81 A'   82 A'   83 A'   84 A'   85 A'                 
  0.734   0.740   0.761   0.776   0.778   0.799   0.822   0.824
 86 A'   25 A"   87 A'   26 A"   88 A'   27 A"   28 A"   89 A'                 
  0.878   0.888   0.938   0.963   0.971   0.979   1.008   1.015
 90 A'   91 A'   92 A'   93 A'   94 A'   95 A'   96 A'   97 A'                 
  1.029   1.042   1.061   1.093   1.100   1.114   1.159   1.227
 98 A'   29 A"   99 A'   30 A"  100 A'  101 A'  102 A'   31 A"                 
  1.242   1.245   1.270   1.301   1.368   1.370   1.393   1.406
 32 A"  103 A'  104 A'  105 A'  106 A'   33 A"   34 A"   35 A"                 
  1.421   1.441   1.460   1.464   1.513   1.515   1.543   1.557
 36 A"  107 A'  108 A'   37 A"   38 A"  109 A'  110 A'  111 A'                 
  1.583   1.760   1.777   1.803   1.814   1.877   1.899   1.915
112 A'  113 A'  114 A'  115 A'   39 A"  116 A'   40 A"  117 A'                 
  1.929   1.952   1.980   2.013   2.014   2.067   2.124   2.143
 41 A"  118 A'  119 A'   42 A"  120 A'  121 A'  122 A'  123 A'                 
  2.186   2.223   2.236   2.283   2.299   2.340   2.358   2.532
124 A'   43 A"  125 A'  126 A'  127 A'   44 A"  128 A'  129 A'                 
  2.566   2.589   2.643   2.668   2.728   2.807   2.822   2.851
 45 A"  130 A'   46 A"  131 A'   47 A"  132 A'   48 A"  133 A'                 
  2.932   2.957   3.006   3.019   3.048   3.094   3.168   3.181
134 A'  135 A'  136 A'  137 A'  138 A'   49 A"   50 A"  139 A'                 
  3.184   3.211   3.263   3.271   3.297   3.310   3.325   3.347
 51 A"  140 A'   52 A"  141 A'  142 A'   53 A"  143 A'   54 A"                 
  3.401   3.515   3.588   3.756   3.766   3.819   3.840   3.876
144 A'  145 A'  146 A'   55 A"   56 A"  147 A'  148 A'  149 A'                 
  3.914   3.959   4.017   4.049   4.106   4.288   4.305   4.364
150 A'  151 A'  152 A'  153 A'  154 A'  155 A'   57 A"   58 A"                 
  4.411   4.485   4.605   5.012   5.158   5.288   5.441   5.553
156 A'  157 A'  158 A'  159 A'  160 A'  161 A'  162 A'  163 A'                 
  5.625   5.633   5.690   5.713   5.782   5.864   5.902   6.438
 59 A"   60 A"  164 A'  165 A'  166 A'  167 A'  168 A'  169 A'                 
  6.445   7.668   7.729   9.888   9.934  20.639  20.695  20.726
170 A'  171 A'  172 A'  173 A'  174 A'  175 A'  176 A'  177 A'                 
 20.897  30.195  30.235  40.894  40.935  80.190  80.235  80.273
178 A'  179 A'  180 A'  181 A'  182 A'  183 A'  184 A'  185 A'                 
 80.428 116.314 116.350 159.240 159.273 322.013 322.053 322.094
186 A'  187 A'  188 A'  189 A'  190 A'  191 A'  192 A'  193 A'                 
322.233 460.413 460.445 631.938 631.9651431.5641431.6041431.646
194 A'  195 A'  196 A'  197 A'  198 A'  199 A'  200 A'  201 A'                 
*******2012.8872012.9162759.3342759.3578749.7838749.8248749.866
202 A'  203 A'  204 A'  205 A'  206 A'  207 A'  208 A'  209 A'                 
***************************************
210 A'  211 A'  212 A'  213 A'  214 A'                                         

 Occupation and symmetry of molecular orbitals

 Point group: Cs (2 irreducible representations).

                           A'   A"    All 
 ------------------------------------------
 All molecular orbitals:
  - Alpha                  214  60    274 
  - Beta                   214  60    274 
 ------------------------------------------
 Alpha orbitals:
  - Frozen occupied        8    0     8   
  - Active occupied        16   5     21  
  - Active virtual         190  55    245 
  - Frozen virtual         0    0     0   
 ------------------------------------------
 Beta orbitals:
  - Frozen occupied        8    0     8   
  - Active occupied        16   5     21  
  - Active virtual         190  55    245 
  - Frozen virtual         0    0     0   
 ------------------------------------------

 Import integrals:   CPU 0.00 s  wall 0.00 s

 Import integrals:   CPU 438.26 s  wall 131.21 s

 MP2 amplitudes:   CPU 1.27 s  wall 0.93 s

Running a double precision version
           CCSD T amplitudes will be solved using DIIS.

           Start     Size      MaxIter   EConv     TConv     
           3         7         100       1.00e-06  1.00e-04  
 ------------------------------------------------------------------------------
           Energy (a.u.)   Ediff      Tdiff       Comment
 ------------------------------------------------------------------------------
          -413.86553529                           
     1    -413.83443829   3.11e-02   1.01e+00     
     2    -413.87911309   4.47e-02   1.36e-01     
     3    -413.87525068   3.86e-03   5.70e-02     
     4    -413.87988230   4.63e-03   2.38e-02     Switched to DIIS steps.
     5    -413.88148900   1.61e-03   1.34e-02     
     6    -413.88163424   1.45e-04   3.40e-03     
     7    -413.88163669   2.45e-06   1.37e-03     
     8    -413.88163269   4.00e-06   4.30e-04     
     9    -413.88163511   2.42e-06   1.74e-04     
    10    -413.88163494   1.69e-07   5.41e-05     
 ------------------------------------------------------------------------------
          -413.88163494                           CCSD T converged.

End of double precision
 SCF energy                 = -412.58033353
 MP2 energy                 = -413.86553529
 CCSD correlation energy    =   -1.30130142
 CCSD total energy          = -413.88163494

 CCSD  T1^2 = 0.0263  T2^2 = 0.4118  Leading amplitudes:

 Amplitude    Orbitals with energies
 -0.0373       2 (A") A                  ->    15 (A") A                  
              -0.5733                          0.1553                     
 -0.0373       2 (A") B                  ->    15 (A") B                  
              -0.5733                          0.1553                     
 -0.0287       2 (A") A                  ->    11 (A") A                  
              -0.5733                          0.0787                     
 -0.0287       2 (A") B                  ->    11 (A") B                  
              -0.5733                          0.0787                     

 Amplitude    Orbitals with energies
 -0.0403       5 (A") A      5 (A") B    ->    11 (A") A     11 (A") B    
              -0.3712       -0.3712            0.0787        0.0787       
  0.0403       5 (A") A      5 (A") B    ->    11 (A") B     11 (A") A    
              -0.3712       -0.3712            0.0787        0.0787       
  0.0403       5 (A") B      5 (A") A    ->    11 (A") A     11 (A") B    
              -0.3712       -0.3712            0.0787        0.0787       
 -0.0403       5 (A") B      5 (A") A    ->    11 (A") B     11 (A") A    
              -0.3712       -0.3712            0.0787        0.0787       

 Computing CCSD intermediates for later calculations in double precision
 Finished.

Running a double precision version
           CCSD Lambda amplitudes will be solved using DIIS.
           Start     Size      MaxIter   EConv     LConv     
           3         7         100       1.00e-06  1.00e-04  
 ------------------------------------------------------------------------------
            Enorm      Ldiff       Comment
 ------------------------------------------------------------------------------
     1     7.12e-02   4.18e-02     
     2     2.64e-02   9.08e-03     
     3     1.19e-02   5.27e-04     
     4     4.98e-03   1.65e-03     Switched to DIIS steps.
     5     1.43e-03   9.37e-04     
     6     6.35e-04   1.99e-04     
     7     2.22e-04   5.47e-05     
     8     9.56e-05   9.95e-06     
     9     3.92e-05   3.53e-06     
    10     1.88e-05   1.33e-06     
    11     8.45e-06   1.82e-07     
    12     3.27e-06   1.75e-07     
    13     1.35e-06   2.53e-08     
    14     5.76e-07   7.97e-09     
 ------------------------------------------------------------------------------
                                   CCSD Lambda converged.

 CCSD calculation:   CPU 2771.31 s  wall 778.51 s

        Solving for EOMEE-CCSD A' singlet states.

Running a double precision version
        EOMEE-CCSD/MP2 right amplitudes will be solved using Davidson.
        Amplitudes will be solved using standard  algorithm.
     Hard-coded thresholds: 
     LinDepThresh=1.00e-15  NormThresh=1.00e-06  ReorthogonThresh=1.00e-02

      Roots     MaxVec    MaxIter   Precond   Conv      Shift    
      3         120       60        1         1.00e-04  0.00e+00  
 ------------------------------------------------------------------------------
      Iter ConvRoots NVecs ResNorm Current eigenvalues (eV)
 ------------------------------------------------------------------------------
      0    0      3     1.39e-01   10.3113   10.9704   11.0113   
      1    0      6     4.65e-01   8.2782   8.9299   8.9564   
      2    0      9     3.81e-02   7.5251   8.2193   8.2385   
      3    0      12    3.76e-03   7.3160   8.0485   8.1013   
      4    0      15    5.28e-02   7.1501   7.7892   8.0074   
      5    0      18    1.01e-01   6.7849   7.2633   7.8105   
      6    0      21    1.34e-02   6.1679   7.1588   7.5412   
      7    0      24    7.56e-02   5.7708   7.1288   7.2096   
      8    0      27    1.51e-02   5.6872   7.0618   7.1235   
      9    0      30    1.52e-03   5.6702   7.0180   7.1205   
      10   0      33    2.52e-03   5.6664   7.0064   7.1188   
      11   1      36    8.36e-04   5.6653*  6.9942   7.1176   
      12   1      38    3.63e-03   5.6652*  6.9712   7.1130   
      13   1      40    7.27e-03   5.6652*  6.9315   7.1018   
      14   1      42    1.36e-03   5.6651*  6.8756   7.0775   
      15   1      44    1.06e-02   5.6652*  6.8109   7.0528   
      16   1      46    9.40e-04   5.6652*  6.7593   7.0412   
      17   1      48    1.61e-03   5.6652*  6.7385   7.0348   
      18   1      50    6.05e-04   5.6652*  6.7288   7.0327   
      19   2      52    1.02e-04   5.6652*  6.7264   7.0312*  
      20   1      53    1.25e-04   5.6652*  6.7252   7.0309   
      21   3      55    4.62e-05   5.6652*  6.7247*  7.0304*  

     Davidson procedure converged

 EOMEE transition 1/A'
 Total energy = -413.67344355 a.u.  Excitation energy = 5.6652 eV.
 R0^2 = 0.0002  R1^2 = 0.9103  R2^2 = 0.0897  Res^2 = 3.41e-05
 Conv-d = yes

 Amplitude    Transitions between orbitals
  0.5058       5 (A") A                  ->    11 (A") A                  
  0.5058       5 (A") B                  ->    11 (A") B                  
 -0.2593       5 (A") A                  ->    12 (A") A                  
 -0.2593       5 (A") B                  ->    12 (A") B                  
 -0.2372       5 (A") A                  ->    10 (A") A                  
 -0.2372       5 (A") B                  ->    10 (A") B                  

              Summary of significant orbitals:

               Number  Type             Irrep      Energy
               29      Occ  Alpha       5 (A")     -0.3712
               29      Occ  Beta        5 (A")     -0.3712
               46      Vir  Alpha      10 (A")      0.0716
               48      Vir  Alpha      11 (A")      0.0787
               50      Vir  Alpha      12 (A")      0.0859
               46      Vir  Beta       10 (A")      0.0716
               48      Vir  Beta       11 (A")      0.0787
               50      Vir  Beta       12 (A")      0.0859


 EOMEE transition 2/A'
 Total energy = -413.63450615 a.u.  Excitation energy = 6.7247 eV.
 R0^2 = 0.0000  R1^2 = 0.8880  R2^2 = 0.1120  Res^2 = 7.97e-06
 Conv-d = yes

 Amplitude    Transitions between orbitals
 -0.4952       4 (A") A                  ->    11 (A") A                  
 -0.4952       4 (A") B                  ->    11 (A") B                  
  0.2616       4 (A") A                  ->    10 (A") A                  
  0.2616       4 (A") B                  ->    10 (A") B                  
  0.2125       4 (A") A                  ->    12 (A") A                  
  0.2125       4 (A") B                  ->    12 (A") B                  
 -0.1198       4 (A") A                  ->    16 (A") A                  
 -0.1198       4 (A") B                  ->    16 (A") B                  

              Summary of significant orbitals:

               Number  Type             Irrep      Energy
               28      Occ  Alpha       4 (A")     -0.4384
               28      Occ  Beta        4 (A")     -0.4384
               46      Vir  Alpha      10 (A")      0.0716
               48      Vir  Alpha      11 (A")      0.0787
               50      Vir  Alpha      12 (A")      0.0859
               66      Vir  Alpha      16 (A")      0.1722
               46      Vir  Beta       10 (A")      0.0716
               48      Vir  Beta       11 (A")      0.0787
               50      Vir  Beta       12 (A")      0.0859
               66      Vir  Beta       16 (A")      0.1722


 EOMEE transition 3/A'
 Total energy = -413.62327335 a.u.  Excitation energy = 7.0304 eV.
 R0^2 = 0.0002  R1^2 = 0.9042  R2^2 = 0.0958  Res^2 = 9.64e-05
 Conv-d = yes

 Amplitude    Transitions between orbitals
 -0.4737       5 (A") A                  ->    15 (A") A                  
 -0.4737       5 (A") B                  ->    15 (A") B                  
 -0.2896       5 (A") A                  ->    14 (A") A                  
 -0.2896       5 (A") B                  ->    14 (A") B                  
 -0.1543       5 (A") A                  ->    8 (A") A                   
 -0.1543       5 (A") B                  ->    8 (A") B                   
 -0.1294       5 (A") A                  ->    16 (A") A                  
 -0.1294       5 (A") B                  ->    16 (A") B                  
 -0.1097       5 (A") A                  ->    18 (A") A                  
 -0.1097       5 (A") B                  ->    18 (A") B                  
  0.1002       4 (A") A                  ->    11 (A") A                  
  0.1002       4 (A") B                  ->    11 (A") B                  

              Summary of significant orbitals:

               Number  Type             Irrep      Energy
               28      Occ  Alpha       4 (A")     -0.4384
               29      Occ  Alpha       5 (A")     -0.3712
               28      Occ  Beta        4 (A")     -0.4384
               29      Occ  Beta        5 (A")     -0.3712
               38      Vir  Alpha       8 (A")      0.0383
               48      Vir  Alpha      11 (A")      0.0787
               55      Vir  Alpha      14 (A")      0.1156
               63      Vir  Alpha      15 (A")      0.1553
               66      Vir  Alpha      16 (A")      0.1722
               71      Vir  Alpha      18 (A")      0.2103
               38      Vir  Beta        8 (A")      0.0383
               48      Vir  Beta       11 (A")      0.0787
               55      Vir  Beta       14 (A")      0.1156
               63      Vir  Beta       15 (A")      0.1553
               66      Vir  Beta       16 (A")      0.1722
               71      Vir  Beta       18 (A")      0.2103


Running a double precision version
      EOM-CCSD/MP2 left amplitudes will be solved using Davidson.
        Amplitudes will be solved using MOM  algorithm.
     Hard-coded thresholds: 
     LinDepThresh=1.00e-15  NormThresh=1.00e-06  ReorthogonThresh=1.00e-02

      Roots     MaxVec    MaxIter   Precond   Conv      Shift    
      3         120       60        1         1.00e-04  0.00e+00  
 ------------------------------------------------------------------------------
      Iter ConvRoots NVecs ResNorm Current eigenvalues (eV)
 ------------------------------------------------------------------------------
      0    0      3     1.28e-02   5.6652   6.7247   7.0304   
      1    0      6     5.33e+00   5.6652   6.7247   7.0304   
      2    0      9     2.23e-02   5.6650   6.7247   7.0303   
      3    0      12    3.89e-03   5.6649   6.7247   7.0303   
      4    1      15    7.13e-04   5.6648   6.7247   7.0303*  
      5    3      17    3.78e-05   5.6648*  6.7247*  7.0303*  

     Davidson procedure converged

        Solving for EOMEE-CCSD A" singlet states.

Running a double precision version
        EOMEE-CCSD/MP2 right amplitudes will be solved using Davidson.
        Amplitudes will be solved using standard  algorithm.
     Hard-coded thresholds: 
     LinDepThresh=1.00e-15  NormThresh=1.00e-06  ReorthogonThresh=1.00e-02

      Roots     MaxVec    MaxIter   Precond   Conv      Shift    
      3         120       60        1         1.00e-04  0.00e+00  
 ------------------------------------------------------------------------------
      Iter ConvRoots NVecs ResNorm Current eigenvalues (eV)
 ------------------------------------------------------------------------------
      0    0      3     1.42e-01   9.7548   10.4574   10.6406   
      1    0      6     2.87e+00   7.6979   8.4073   8.5755   
      2    0      9     2.72e-01   6.7623   7.5936   7.7399   
      3    0      12    1.16e-02   6.3591   7.3216   7.4497   
      4    0      15    2.33e-01   6.1312   7.1163   7.1884   
      5    0      18    6.01e-02   6.0506   7.0104   7.0293   
      6    0      21    5.77e-03   6.0298   6.9813   6.9857   
      7    0      24    1.73e-02   6.0271   6.9679   6.9757   
      8    0      27    4.72e-03   6.0265   6.9591   6.9728   
      9    0      30    1.18e-03   6.0263   6.9524   6.9708   
      10   1      33    2.52e-03   6.0262*  6.9494   6.9685   
      11   1      35    6.07e-04   6.0262*  6.9485   6.9677   
      12   1      37    9.68e-03   6.0262*  6.9396   6.9639   
      13   0      39    5.91e-01   6.0261   6.2251   6.9509   
      14   2      42    1.43e-02   5.4009   6.0263*  6.9490*  
      15   1      43    3.25e-02   5.2087   6.0262*  6.9488   
      16   2      45    2.96e-03   5.1735   6.0262*  6.9486*  
      17   2      46    1.16e-03   5.1628   6.0262*  6.9486*  
      18   1      47    1.73e-03   5.1572   6.0262*  6.9485   
      19   2      49    2.16e-04   5.1533   6.0262*  6.9482*  
      20   1      50    3.09e-03   5.1516   6.0262*  6.9468   
      21   1      52    5.25e-02   5.1511   6.0262*  6.7809   
      22   2      54    7.69e-03   5.1508*  6.0262*  6.6384   
      23   2      55    1.72e-02   5.1507*  6.0262*  6.5748   
      24   2      56    1.60e-03   5.1506*  6.0262*  6.5461   
      25   2      57    4.28e-03   5.1507*  6.0262*  6.5291   
      26   2      58    1.03e-03   5.1507*  6.0262*  6.5202   
      27   2      59    3.49e-04   5.1507*  6.0262*  6.5155   
      28   2      60    4.64e-04   5.1507*  6.0262*  6.5146   
      29   2      61    3.72e-05   5.1507*  6.0262*  6.5132   
      30   2      62    8.75e-05   5.1507*  6.0262*  6.5134   
      31   3      63    1.08e-05   5.1507*  6.0262*  6.5131*  

     Davidson procedure converged

 EOMEE transition 1/A"
 Total energy = -413.69235089 a.u.  Excitation energy = 5.1507 eV.
 R0^2 = 0.0000  R1^2 = 0.9087  R2^2 = 0.0913  Res^2 = 2.26e-06
 Conv-d = yes

 Amplitude    Transitions between orbitals
  0.4565       24 (A') A                 ->    11 (A") A                  
  0.4565       24 (A') B                 ->    11 (A") B                  
 -0.2215       24 (A') A                 ->    12 (A") A                  
 -0.2215       24 (A') B                 ->    12 (A") B                  
 -0.2148       24 (A') A                 ->    10 (A") A                  
 -0.2148       24 (A') B                 ->    10 (A") B                  
  0.1906       24 (A') A                 ->    15 (A") A                  
  0.1906       24 (A') B                 ->    15 (A") B                  
  0.1573       24 (A') A                 ->    16 (A") A                  
  0.1573       24 (A') B                 ->    16 (A") B                  
 -0.1304       23 (A') A                 ->    11 (A") A                  
 -0.1304       23 (A') B                 ->    11 (A") B                  
  0.1138       24 (A') A                 ->    21 (A") A                  
  0.1138       24 (A') B                 ->    21 (A") B                  
  0.1100       24 (A') A                 ->    14 (A") A                  
  0.1100       24 (A') B                 ->    14 (A") B                  

              Summary of significant orbitals:

               Number  Type             Irrep      Energy
               26      Occ  Alpha      23 (A')     -0.4866
               27      Occ  Alpha      24 (A')     -0.4518
               26      Occ  Beta       23 (A')     -0.4866
               27      Occ  Beta       24 (A')     -0.4518
               46      Vir  Alpha      10 (A")      0.0716
               48      Vir  Alpha      11 (A")      0.0787
               50      Vir  Alpha      12 (A")      0.0859
               55      Vir  Alpha      14 (A")      0.1156
               63      Vir  Alpha      15 (A")      0.1553
               66      Vir  Alpha      16 (A")      0.1722
               83      Vir  Alpha      21 (A")      0.2958
               46      Vir  Beta       10 (A")      0.0716
               48      Vir  Beta       11 (A")      0.0787
               50      Vir  Beta       12 (A")      0.0859
               55      Vir  Beta       14 (A")      0.1156
               63      Vir  Beta       15 (A")      0.1553
               66      Vir  Beta       16 (A")      0.1722
               83      Vir  Beta       21 (A")      0.2958


 EOMEE transition 2/A"
 Total energy = -413.66017514 a.u.  Excitation energy = 6.0262 eV.
 R0^2 = 0.0000  R1^2 = 0.9277  R2^2 = 0.0723  Res^2 = 8.62e-07
 Conv-d = yes

 Amplitude    Transitions between orbitals
  0.4707       5 (A") A                  ->    25 (A') A                  
  0.4707       5 (A") B                  ->    25 (A') B                  
  0.2925       5 (A") A                  ->    32 (A') A                  
  0.2925       5 (A") B                  ->    32 (A') B                  
  0.1473       5 (A") A                  ->    30 (A') A                  
  0.1473       5 (A") B                  ->    30 (A') B                  
  0.1377       5 (A") A                  ->    33 (A') A                  
  0.1377       5 (A") B                  ->    33 (A') B                  
  0.1311       5 (A") A                  ->    39 (A') A                  
  0.1311       5 (A") B                  ->    39 (A') B                  
  0.1166       5 (A") A                  ->    45 (A') A                  
  0.1166       5 (A") B                  ->    45 (A') B                  

              Summary of significant orbitals:

               Number  Type             Irrep      Energy
               29      Occ  Alpha       5 (A")     -0.3712
               29      Occ  Beta        5 (A")     -0.3712
               30      Vir  Alpha      25 (A')      0.0049
               36      Vir  Alpha      30 (A')      0.0353
               40      Vir  Alpha      32 (A')      0.0472
               41      Vir  Alpha      33 (A')      0.0489
               51      Vir  Alpha      39 (A')      0.0882
               59      Vir  Alpha      45 (A')      0.1306
               30      Vir  Beta       25 (A')      0.0049
               36      Vir  Beta       30 (A')      0.0353
               40      Vir  Beta       32 (A')      0.0472
               41      Vir  Beta       33 (A')      0.0489
               51      Vir  Beta       39 (A')      0.0882
               59      Vir  Beta       45 (A')      0.1306


 EOMEE transition 3/A"
 Total energy = -413.64228406 a.u.  Excitation energy = 6.5131 eV.
 R0^2 = 0.0000  R1^2 = 0.9172  R2^2 = 0.0828  Res^2 = 2.94e-05
 Conv-d = yes

 Amplitude    Transitions between orbitals
  0.3463       23 (A') A                 ->    15 (A") A                  
  0.3463       23 (A') B                 ->    15 (A") B                  
  0.3206       24 (A') A                 ->    15 (A") A                  
  0.3206       24 (A') B                 ->    15 (A") B                  
  0.1807       23 (A') A                 ->    18 (A") A                  
  0.1807       23 (A') B                 ->    18 (A") B                  
 -0.1701       23 (A') A                 ->    11 (A") A                  
 -0.1701       23 (A') B                 ->    11 (A") B                  
  0.1455       24 (A') A                 ->    14 (A") A                  
  0.1455       24 (A') B                 ->    14 (A") B                  
  0.1438       23 (A') A                 ->    14 (A") A                  
  0.1438       23 (A') B                 ->    14 (A") B                  
  0.1286       24 (A') A                 ->    18 (A") A                  
  0.1286       24 (A') B                 ->    18 (A") B                  
  0.1246       23 (A') A                 ->    10 (A") A                  
  0.1246       23 (A') B                 ->    10 (A") B                  
 -0.1208       24 (A') A                 ->    11 (A") A                  
 -0.1208       24 (A') B                 ->    11 (A") B                  
 -0.1147       23 (A') A                 ->    21 (A") A                  
 -0.1147       23 (A') B                 ->    21 (A") B                  

              Summary of significant orbitals:

               Number  Type             Irrep      Energy
               26      Occ  Alpha      23 (A')     -0.4866
               27      Occ  Alpha      24 (A')     -0.4518
               26      Occ  Beta       23 (A')     -0.4866
               27      Occ  Beta       24 (A')     -0.4518
               46      Vir  Alpha      10 (A")      0.0716
               48      Vir  Alpha      11 (A")      0.0787
               55      Vir  Alpha      14 (A")      0.1156
               63      Vir  Alpha      15 (A")      0.1553
               71      Vir  Alpha      18 (A")      0.2103
               83      Vir  Alpha      21 (A")      0.2958
               46      Vir  Beta       10 (A")      0.0716
               48      Vir  Beta       11 (A")      0.0787
               55      Vir  Beta       14 (A")      0.1156
               63      Vir  Beta       15 (A")      0.1553
               71      Vir  Beta       18 (A")      0.2103
               83      Vir  Beta       21 (A")      0.2958


Running a double precision version
      EOM-CCSD/MP2 left amplitudes will be solved using Davidson.
        Amplitudes will be solved using MOM  algorithm.
     Hard-coded thresholds: 
     LinDepThresh=1.00e-15  NormThresh=1.00e-06  ReorthogonThresh=1.00e-02

      Roots     MaxVec    MaxIter   Precond   Conv      Shift    
      3         120       60        1         1.00e-04  0.00e+00  
 ------------------------------------------------------------------------------
      Iter ConvRoots NVecs ResNorm Current eigenvalues (eV)
 ------------------------------------------------------------------------------
      0    0      3     1.24e-02   5.1507   6.0262   6.5131   
      1    0      6     1.40e+01   5.1507   6.0262   6.5130   
      2    0      9     3.63e-02   5.1507   6.0262   6.5131   
      3    0      12    8.98e-03   5.1507   6.0262   6.5130   
      4    1      15    6.25e-04   5.1507   6.0262   6.5130*  
      5    3      17    5.00e-05   5.1507*  6.0262*  6.5130*  

     Davidson procedure converged

 EOMEE-CCSD calculation:   CPU 11510.27 s  wall 3706.84 s

        Solving for CVS-EOMIP-CCSD A' transitions.

Warning! Not enough singles to form guess subspace. Doubles guess vectors will be generated.
In case of poor EOM convergence, reduce requested IP_STATES.

Running a double precision version
      CVS-EOMIP-CCSD/MP2 right amplitudes will be solved using Davidson.
        Amplitudes will be solved using shifted  algorithm.
     Hard-coded thresholds: 
     LinDepThresh=1.00e-15  NormThresh=1.00e-06  ReorthogonThresh=1.00e-02

      Roots     MaxVec    MaxIter   Precond   Conv      Shift    
      20        120       60        1         1.00e-04  1.05e+01  
 ------------------------------------------------------------------------------
      Iter ConvRoots NVecs ResNorm Current eigenvalues (eV)
 ------------------------------------------------------------------------------
      0    0      20    5.39e-01   306.0236   307.9971   309.1602   310.1356   321.3918   321.3939   321.3951   321.6536   321.6589   321.6958   322.1382   322.1397   322.1479   322.2619   322.2625   322.2637   425.0428   425.5139   559.4073   559.4778   
      1    0      40    5.60e-01   303.1855   305.1975   306.3564   307.3221   318.9892   319.1841   319.4536   320.7088   320.7277   320.9427   320.9858   321.0366   321.3662   321.4157   321.4288   321.4924   323.0216   323.1055   323.2035   324.3349   
      2    0      60    4.16e-02   292.0666   294.2197   295.7824   296.8407   311.6240   311.9998   313.4675   318.7541   318.8558   319.2630   319.3600   319.4888   319.7825   320.5675   320.6013   320.7341   321.8013   321.8470   321.8882   322.0028   
      3    0      80    2.73e-02   291.6743   293.8204   295.4172   296.4817   309.9344   310.1588   311.6555   315.6979   317.0099   317.5990   317.8911   318.2164   318.7719   318.8004   319.0367   319.6287   320.0678   320.6273   320.7240   321.0465   
      4    0      100   1.62e-02   291.6567   293.7960   295.3937   296.4612   309.7797   309.9477   311.4150   313.9162   314.2189   316.6435   316.7765   316.9978   317.1218   317.6301   317.7358   319.0022   319.2889   319.6458   319.9601   320.3240   
      5    4      120   5.99e-02   291.6529*  293.7900*  295.3887*  296.4569*  309.7328   309.9264   311.3636   312.5509   313.3985   313.4994   314.1623   315.9516   316.1599   316.2211   316.8036   316.8508   317.1509   317.2498   318.3019   318.6409   
      6    4      36    2.03e-02   291.6524*  293.7888*  295.3887*  296.4569*  309.6107   309.9139   310.3335   311.1584   311.1724   311.5941   313.1099   313.1998   313.6406   314.3803   315.2536   315.6328   315.7935   316.1501   317.0983   317.9172   
      7    4      52    2.23e-02   291.6524*  293.7870*  295.3887*  296.4569*  308.9583   309.4804   309.7672   309.8269   309.9411   310.0762   310.3964   311.4063   312.0741   313.1083   313.3248   313.7505   314.4594   315.0827   315.3523   315.4200   
      8    4      68    1.17e-02   291.6523*  293.7843*  295.3887*  296.4569*  308.4939   308.7422   308.8681   309.4721   309.8014   309.8433   310.0347   310.8605   311.3865   312.0877   312.4944   313.3077   313.4346   313.9275   314.6129   315.1947   
      9    5      84    6.73e-03   291.6523*  293.7881*  295.3887*  296.4569*  308.1990   308.5659   308.6969   308.9403   309.7677   309.7975*  309.9862   310.3920   311.3359   311.5498   311.6851   313.2306   313.2671   313.6137   313.7092   314.6382   
      10   5      99    4.55e-03   291.6530*  293.7889*  295.3887*  296.4569*  308.1448   308.3960   308.6431   308.6823   309.7144   309.7961*  309.9698   310.2258   311.0915   311.1780   311.4665   312.8369   312.9594   313.2131   313.3989   313.8451   
      11   5      114   2.14e-02   291.6532*  293.7890*  295.3886*  296.4569*  308.0717   308.2270   308.5416   308.6749   309.3936   309.6979   309.7981   309.9653*  310.1827   310.5855   310.9979   311.4324   311.5647   312.2628   312.9607   313.0825   
      12   8      120   6.14e-03   291.6531*  293.7890*  295.3886*  296.4569*  307.2897   308.1787   308.2619   308.5242   308.6848*  309.6046   309.6937*  309.7972*  309.9641*  310.1814   310.9234   311.2584   311.4198   311.5051   312.9254   313.0602   
      13   7      32    1.78e-03   291.6532*  293.7889*  295.3886*  296.4569*  307.0611   308.1743   308.2340   308.5213*  308.6839*  309.1944   309.6915   309.7967*  309.9621   310.1560   310.2041   311.0441   311.1872   311.4288   312.7200   313.0411   
      14   6      45    1.64e-02   291.6529*  293.7894*  295.3884*  296.4569*  306.9791   308.1703   308.2241   308.5199*  308.6837   308.7293   309.2719   309.6961   309.7648   309.7984   309.9649*  310.1685   310.9964   311.1790   311.4214   312.4833   
      15   10     59    3.32e-03   291.6529*  293.7895*  295.3884*  296.4569*  306.9412   307.7174   308.1670*  308.2255*  308.4732   308.5356   308.6836*  309.2884   309.6941*  309.7966*  309.9645*  310.1587   310.3375   311.0212   311.1686   311.4325   
      16   13     69    9.44e-04   291.6529*  293.7895*  295.3884*  296.4569*  306.9306*  307.5585   308.1666*  308.2085   308.2241*  308.5208*  308.6836*  309.2618   309.6937*  309.7966*  309.9497   309.9643*  310.1480   310.7180   311.0073   311.1673*  
      17   14     76    4.64e-04   291.6529*  293.7895*  295.3883*  296.4569*  306.9293*  307.5319   308.1521   308.1666*  308.2240*  308.5203*  308.6835*  309.2568*  309.6934*  309.7966*  309.8698   309.9644*  310.1196   310.3994   311.0018   311.1672*  
      18   13     82    1.11e-03   291.6529*  293.7895*  295.3883*  296.4569*  306.9289*  307.5226   308.1407   308.1666*  308.2240*  308.5201*  308.6835*  309.2556*  309.6933*  309.7966*  309.8166   309.9644*  310.0939   310.3152   310.8539   311.0197   
      19   16     89    2.40e-04   291.6529*  293.7895*  295.3883*  296.4569*  306.9288*  307.5184*  308.1381*  308.1666*  308.2240*  308.5201*  308.6835*  309.2547*  309.6930*  309.7794   309.7966*  309.9644*  310.0830   310.2938   310.5035   311.0070*  
      20   17     93    1.42e-04   291.6529*  293.7895*  295.3883*  296.4568*  306.9288*  307.5184*  308.1376*  308.1666*  308.2240*  308.5201*  308.6835*  309.2547*  309.6929*  309.7661   309.7966*  309.9644*  310.0790*  310.2869   310.4077   311.0059*  
      21   18     96    1.29e-04   291.6529*  293.7895*  295.3883*  296.4568*  306.9288*  307.5184*  308.1372*  308.1666*  308.2240*  308.5201*  308.6835*  309.2546*  309.6928*  309.7615*  309.7966*  309.9644*  310.0761*  310.2809   310.3515   311.0055*  
      22   15     98    1.92e-03   291.6529*  293.7895*  295.3883*  296.4567*  306.9288*  307.5184*  308.1372*  308.1665*  308.2240*  308.5201*  308.6835*  309.2546*  309.6929*  309.7534   309.7966*  309.8662   309.9643*  310.0781   310.2824   310.5115   
      23   18     103   5.85e-04   291.6529*  293.7895*  295.3883*  296.4567*  306.9288*  307.5183*  308.1371*  308.1665*  308.2240*  308.5202*  308.6835*  309.0790   309.2546*  309.6928*  309.7613*  309.7966*  309.9644*  310.0745*  310.2799*  310.4173   
      24   18     105   1.49e-04   291.6529*  293.7895*  295.3883*  296.4567*  306.9288*  307.5183*  308.1371*  308.1665*  308.2240*  308.5202*  308.6835*  308.8712   309.2546*  309.6928*  309.7607*  309.7966*  309.9644*  310.0743*  310.2797*  310.4056   
      25   19     107   5.23e-05   291.6529*  293.7895*  295.3883*  296.4567*  306.9288*  307.5183*  308.1371*  308.1665*  308.2239*  308.5202*  308.6835*  308.8185   309.2546*  309.6928*  309.7605*  309.7966*  309.9644*  310.0742*  310.2796*  310.4023*  
      26   19     108   2.70e-05   291.6529*  293.7895*  295.3883*  296.4567*  306.9287*  307.5183*  308.1371*  308.1665*  308.2239*  308.5202*  308.6835*  308.8015   309.2546*  309.6928*  309.7605*  309.7966*  309.9644*  310.0742*  310.2796*  310.4014*  
      27   19     109   2.01e-05   291.6529*  293.7896*  295.3883*  296.4567*  306.9287*  307.5183*  308.1370*  308.1665*  308.2239*  308.5202*  308.6835*  308.7941   309.2546*  309.6928*  309.7605*  309.7966*  309.9644*  310.0742*  310.2796*  310.4011*  
      28   20     110   1.66e-05   291.6529*  293.7896*  295.3883*  296.4567*  306.9287*  307.5183*  308.1370*  308.1665*  308.2239*  308.5202*  308.6835*  308.7908*  309.2546*  309.6928*  309.7605*  309.7966*  309.9644*  310.0742*  310.2796*  310.4010*  

     Davidson procedure converged

 EOMIP transition 1/A'
 Total energy = -403.16358757 a.u.  Excitation energy = 291.6529 eV.
 R1^2 = 0.8911  R2_CCVV^2 = 0.0018  R2_COVV^2 = 0.1079  Res^2 = 3.49e-06
 Conv-d = yes

 Amplitude    Transitions between orbitals
  0.9440       8 (A') A                  ->    infty        
  0.0023       7 (A') A                  ->    infty        
 -0.0005       6 (A') A                  ->    infty        

              Summary of significant orbitals:

               Number  Type             Irrep      Energy
               6       Occ  Alpha       6 (A')    -11.3881
               7       Occ  Alpha       7 (A')    -11.3463
               8       Occ  Alpha       8 (A')    -11.2612


 EOMIP transition 2/A'
 Total energy = -403.08506713 a.u.  Excitation energy = 293.7896 eV.
 R1^2 = 0.8871  R2_CCVV^2 = 0.0018  R2_COVV^2 = 0.1120  Res^2 = 5.22e-06
 Conv-d = yes

 Amplitude    Transitions between orbitals
  0.9418       7 (A') A                  ->    infty        
 -0.0023       8 (A') A                  ->    infty        

              Summary of significant orbitals:

               Number  Type             Irrep      Energy
               7       Occ  Alpha       7 (A')    -11.3463
               8       Occ  Alpha       8 (A')    -11.2612


 EOMIP transition 3/A'
 Total energy = -403.02631425 a.u.  Excitation energy = 295.3883 eV.
 R1^2 = 0.8926  R2_CCVV^2 = 0.0018  R2_COVV^2 = 0.1065  Res^2 = 1.20e-05
 Conv-d = yes

 Amplitude    Transitions between orbitals
 -0.9448       6 (A') A                  ->    infty        
 -0.0004       8 (A') A                  ->    infty        
  0.0001       5 (A') A                  ->    infty        

              Summary of significant orbitals:

               Number  Type             Irrep      Energy
               5       Occ  Alpha       5 (A')    -11.4267
               6       Occ  Alpha       6 (A')    -11.3881
               8       Occ  Alpha       8 (A')    -11.2612


 EOMIP transition 4/A'
 Total energy = -402.98705276 a.u.  Excitation energy = 296.4567 eV.
 R1^2 = 0.8932  R2_CCVV^2 = 0.0018  R2_COVV^2 = 0.1059  Res^2 = 1.07e-05
 Conv-d = yes

 Amplitude    Transitions between orbitals
  0.9451       5 (A') A                  ->    infty        
  0.0001       6 (A') A                  ->    infty        

              Summary of significant orbitals:

               Number  Type             Irrep      Energy
               5       Occ  Alpha       5 (A')    -11.4267
               6       Occ  Alpha       6 (A')    -11.3881


 EOMIP transition 5/A'
 Total energy = -402.60221213 a.u.  Excitation energy = 306.9287 eV.
 R1^2 = 0.0000  R2_CCVV^2 = 0.0000  R2_COVV^2 = 1.0000  Res^2 = 4.86e-05
 Conv-d = yes

 Amplitude    Transitions between orbitals
 -0.4866       7 (A') A      5 (A") A    ->    11 (A") A    
  0.4865       7 (A') A      5 (A") B    ->    11 (A") B    
  0.4865       7 (A') B      5 (A") A    ->    11 (A") B    
 -0.2857       7 (A') B      5 (A") A    ->    21 (A") B    
 -0.2856       7 (A') A      5 (A") B    ->    21 (A") B    
  0.2854       7 (A') A      5 (A") A    ->    21 (A") A    
  0.2784       7 (A') A      5 (A") A    ->    12 (A") A    
 -0.2783       7 (A') B      5 (A") A    ->    12 (A") B    
 -0.2782       7 (A') A      5 (A") B    ->    12 (A") B    
 -0.2427       7 (A') A      5 (A") B    ->    25 (A") B    
 -0.2426       7 (A') B      5 (A") A    ->    25 (A") B    
  0.2425       7 (A') A      5 (A") A    ->    25 (A") A    
 -0.2019       7 (A') A      5 (A") A    ->    16 (A") A    
  0.2017       7 (A') A      5 (A") B    ->    16 (A") B    
  0.2017       7 (A') B      5 (A") A    ->    16 (A") B    
 -0.1857       7 (A') B      5 (A") A    ->    27 (A") B    
 -0.1856       7 (A') A      5 (A") B    ->    27 (A") B    
  0.1855       7 (A') A      5 (A") A    ->    27 (A") A    
  0.1840       7 (A') A      5 (A") A    ->    10 (A") A    
 -0.1840       7 (A') B      5 (A") A    ->    10 (A") B    
 -0.1839       7 (A') A      5 (A") B    ->    10 (A") B    
 -0.1340       7 (A') B      5 (A") A    ->    18 (A") B    
 -0.1340       7 (A') A      5 (A") B    ->    18 (A") B    
  0.1339       7 (A') A      5 (A") A    ->    18 (A") A    

              Summary of significant orbitals:

               Number  Type             Irrep      Energy
               7       Occ  Alpha       7 (A')    -11.3463
               7       Occ  Beta        7 (A')    -11.3463
               29      Occ  Alpha       5 (A")     -0.3712
               29      Occ  Beta        5 (A")     -0.3712
               46      Vir  Alpha      10 (A")      0.0716
               48      Vir  Alpha      11 (A")      0.0787
               50      Vir  Alpha      12 (A")      0.0859
               66      Vir  Alpha      16 (A")      0.1722
               71      Vir  Alpha      18 (A")      0.2103
               83      Vir  Alpha      21 (A")      0.2958
               111     Vir  Alpha      25 (A")      0.7403
               115     Vir  Alpha      27 (A")      0.7995
               46      Vir  Beta       10 (A")      0.0716
               48      Vir  Beta       11 (A")      0.0787
               50      Vir  Beta       12 (A")      0.0859
               66      Vir  Beta       16 (A")      0.1722
               71      Vir  Beta       18 (A")      0.2103
               83      Vir  Beta       21 (A")      0.2958
               111     Vir  Beta       25 (A")      0.7403
               115     Vir  Beta       27 (A")      0.7995


 EOMIP transition 6/A'
 Total energy = -402.58054555 a.u.  Excitation energy = 307.5183 eV.
 R1^2 = 0.0000  R2_CCVV^2 = 0.0000  R2_COVV^2 = 1.0000  Res^2 = 4.94e-05
 Conv-d = yes

 Amplitude    Transitions between orbitals
  0.3694       6 (A') A      5 (A") B    ->    21 (A") B    
  0.3694       6 (A') B      5 (A") A    ->    21 (A") B    
 -0.3694       6 (A') A      5 (A") A    ->    21 (A") A    
  0.3387       6 (A') A      5 (A") B    ->    15 (A") B    
  0.3386       6 (A') B      5 (A") A    ->    15 (A") B    
 -0.3385       6 (A') A      5 (A") A    ->    15 (A") A    
  0.3263       6 (A') B      5 (A") A    ->    11 (A") B    
  0.3262       6 (A') A      5 (A") B    ->    11 (A") B    
 -0.3262       6 (A') A      5 (A") A    ->    11 (A") A    
  0.2460       6 (A') A      5 (A") A    ->    28 (A") A    
 -0.2458       6 (A') B      5 (A") A    ->    28 (A") B    
 -0.2457       6 (A') A      5 (A") B    ->    28 (A") B    
  0.2246       6 (A') B      5 (A") A    ->    16 (A") B    
  0.2245       6 (A') A      5 (A") B    ->    16 (A") B    
 -0.2245       6 (A') A      5 (A") A    ->    16 (A") A    
  0.1746       6 (A') B      5 (A") A    ->    14 (A") B    
  0.1746       6 (A') A      5 (A") B    ->    14 (A") B    
 -0.1745       6 (A') A      5 (A") A    ->    14 (A") A    
  0.1651       6 (A') A      5 (A") A    ->    26 (A") A    
 -0.1649       6 (A') B      5 (A") A    ->    26 (A") B    
 -0.1648       6 (A') A      5 (A") B    ->    26 (A") B    
 -0.1615       6 (A') B      5 (A") A    ->    10 (A") B    
 -0.1615       6 (A') A      5 (A") B    ->    10 (A") B    
  0.1615       6 (A') A      5 (A") A    ->    10 (A") A    
 -0.1367       6 (A') B      5 (A") A    ->    12 (A") B    
  0.1367       6 (A') A      5 (A") A    ->    12 (A") A    
 -0.1367       6 (A') A      5 (A") B    ->    12 (A") B    
 -0.1229       6 (A') A      5 (A") A    ->    23 (A") A    
  0.1229       6 (A') A      5 (A") B    ->    23 (A") B    
  0.1229       6 (A') B      5 (A") A    ->    23 (A") B    
  0.1072       6 (A') A      5 (A") A    ->    19 (A") A    
 -0.1072       6 (A') B      5 (A") A    ->    19 (A") B    
 -0.1072       6 (A') A      5 (A") B    ->    19 (A") B    

              Summary of significant orbitals:

               Number  Type             Irrep      Energy
               6       Occ  Alpha       6 (A')    -11.3881
               6       Occ  Beta        6 (A')    -11.3881
               29      Occ  Alpha       5 (A")     -0.3712
               29      Occ  Beta        5 (A")     -0.3712
               46      Vir  Alpha      10 (A")      0.0716
               48      Vir  Alpha      11 (A")      0.0787
               50      Vir  Alpha      12 (A")      0.0859
               55      Vir  Alpha      14 (A")      0.1156
               63      Vir  Alpha      15 (A")      0.1553
               66      Vir  Alpha      16 (A")      0.1722
               75      Vir  Alpha      19 (A")      0.2409
               83      Vir  Alpha      21 (A")      0.2958
               92      Vir  Alpha      23 (A")      0.4099
               113     Vir  Alpha      26 (A")      0.7758
               116     Vir  Alpha      28 (A")      0.8223
               46      Vir  Beta       10 (A")      0.0716
               48      Vir  Beta       11 (A")      0.0787
               50      Vir  Beta       12 (A")      0.0859
               55      Vir  Beta       14 (A")      0.1156
               63      Vir  Beta       15 (A")      0.1553
               66      Vir  Beta       16 (A")      0.1722
               75      Vir  Beta       19 (A")      0.2409
               83      Vir  Beta       21 (A")      0.2958
               92      Vir  Beta       23 (A")      0.4099
               113     Vir  Beta       26 (A")      0.7758
               116     Vir  Beta       28 (A")      0.8223


 EOMIP transition 7/A'
 Total energy = -402.55780717 a.u.  Excitation energy = 308.1370 eV.
 R1^2 = 0.0039  R2_CCVV^2 = 0.0000  R2_COVV^2 = 0.9961  Res^2 = 1.62e-05
 Conv-d = yes

 Amplitude    Transitions between orbitals
 -0.5222       6 (A') A      5 (A") B    ->    21 (A") B    
 -0.4585       6 (A') A      5 (A") B    ->    15 (A") B    
 -0.4415       6 (A') A      5 (A") B    ->    11 (A") B    
  0.3521       6 (A') B      5 (A") A    ->    21 (A") B    
  0.3495       6 (A') A      5 (A") B    ->    28 (A") B    
  0.3281       6 (A') B      5 (A") A    ->    15 (A") B    
  0.3225       6 (A') B      5 (A") A    ->    11 (A") B    
 -0.3031       6 (A') A      5 (A") B    ->    16 (A") B    
 -0.2441       6 (A') A      5 (A") B    ->    14 (A") B    
  0.2362       6 (A') A      5 (A") B    ->    26 (A") B    
 -0.2288       6 (A') B      5 (A") A    ->    28 (A") B    
  0.2221       6 (A') A      5 (A") B    ->    10 (A") B    
  0.2182       6 (A') B      5 (A") A    ->    16 (A") B    
  0.1796       6 (A') A      5 (A") B    ->    12 (A") B    
 -0.1697       6 (A') A      5 (A") A    ->    21 (A") A    
  0.1697       6 (A') B      5 (A") A    ->    14 (A") B    
 -0.1681       6 (A') A      5 (A") B    ->    23 (A") B    
 -0.1595       6 (A') B      5 (A") A    ->    10 (A") B    
  0.1560       6 (A') A      5 (A") B    ->    19 (A") B    
 -0.1540       6 (A') B      5 (A") A    ->    26 (A") B    
 -0.1357       6 (A') B      5 (A") A    ->    12 (A") B    
 -0.1302       6 (A') A      5 (A") A    ->    15 (A") A    
  0.1205       6 (A') A      5 (A") A    ->    28 (A") A    
 -0.1192       6 (A') A      5 (A") A    ->    11 (A") A    
  0.1166       6 (A') B      5 (A") A    ->    23 (A") B    
  0.1108       6 (A') A      5 (A") B    ->    18 (A") B    
  0.1080       6 (A') A      5 (A") B    ->    49 (A") B    
 -0.1079       6 (A') A      5 (A") B    ->    20 (A") B    
 -0.1029       6 (A') B      5 (A") A    ->    19 (A") B    

              Summary of significant orbitals:

               Number  Type             Irrep      Energy
               6       Occ  Alpha       6 (A')    -11.3881
               6       Occ  Beta        6 (A')    -11.3881
               29      Occ  Alpha       5 (A")     -0.3712
               29      Occ  Beta        5 (A")     -0.3712
               48      Vir  Alpha      11 (A")      0.0787
               63      Vir  Alpha      15 (A")      0.1553
               83      Vir  Alpha      21 (A")      0.2958
               116     Vir  Alpha      28 (A")      0.8223
               46      Vir  Beta       10 (A")      0.0716
               48      Vir  Beta       11 (A")      0.0787
               50      Vir  Beta       12 (A")      0.0859
               55      Vir  Beta       14 (A")      0.1156
               63      Vir  Beta       15 (A")      0.1553
               66      Vir  Beta       16 (A")      0.1722
               71      Vir  Beta       18 (A")      0.2103
               75      Vir  Beta       19 (A")      0.2409
               80      Vir  Beta       20 (A")      0.2784
               83      Vir  Beta       21 (A")      0.2958
               92      Vir  Beta       23 (A")      0.4099
               113     Vir  Beta       26 (A")      0.7758
               116     Vir  Beta       28 (A")      0.8223
               187     Vir  Beta       49 (A")      3.0944


 EOMIP transition 8/A'
 Total energy = -402.55672477 a.u.  Excitation energy = 308.1665 eV.
 R1^2 = 0.0073  R2_CCVV^2 = 0.0000  R2_COVV^2 = 0.9927  Res^2 = 2.67e-05
 Conv-d = yes

 Amplitude    Transitions between orbitals
  0.5885       7 (A') B      5 (A") A    ->    11 (A") B    
 -0.5042       7 (A') A      5 (A") B    ->    11 (A") B    
 -0.3360       7 (A') B      5 (A") A    ->    12 (A") B    
 -0.3329       7 (A') B      5 (A") A    ->    21 (A") B    
  0.2881       7 (A') A      5 (A") B    ->    12 (A") B    
  0.2850       7 (A') A      5 (A") B    ->    21 (A") B    
 -0.2676       7 (A') A      4 (A") B    ->    11 (A") B    
 -0.2609       7 (A') B      5 (A") A    ->    25 (A") B    
  0.2543       7 (A') A      5 (A") B    ->    25 (A") B    
  0.2348       7 (A') B      5 (A") A    ->    16 (A") B    
 -0.2267       7 (A') B      5 (A") A    ->    10 (A") B    
 -0.2137       7 (A') A      5 (A") B    ->    16 (A") B    
 -0.2056       7 (A') B      5 (A") A    ->    27 (A") B    
  0.1939       7 (A') B      4 (A") A    ->    11 (A") B    
  0.1852       7 (A') A      5 (A") B    ->    27 (A") B    
  0.1852       7 (A') A      5 (A") B    ->    10 (A") B    
[...]
194   -6.8860e-16
195   -1.1359e-15
196   1.9315e-16
197   2.3302e-15
198   -6.7730e-16
199   1.1683e-15
200   -3.4308e-16
201   -5.1992e-17
202   -1.1397e-15
203   -1.3291e-16
204   2.1726e-15
205   4.4898e-16
206   -2.7687e-16
207   -2.6849e-17
208   -5.1750e-16
209   -2.4899e-15
210   2.9675e-15
211   -6.1069e-16
212   -7.3251e-16
213   1.7559e-15
214   5.3352e-16
215   -8.1607e-16
216   2.0542e-15
217   2.5744e-15
218   6.8952e-16
219   -2.0150e-15
220   -4.7127e-16
221   1.0113e-16
222   -3.5029e-16
223   -3.8002e-16
224   -2.3321e-15
225   9.5502e-16
226   1.0549e-15
227   -8.8211e-16
228   -1.1933e-15
229   -2.1135e-15
230   -3.5507e-16
231   2.6042e-16
232   7.9412e-16
233   6.1200e-17
234   2.3142e-15
235   1.8459e-17
236   1.6966e-15
237   -5.9570e-17
238   7.3222e-16
239   9.7315e-16
240   -3.2531e-16
241   4.9363e-16
242   -1.8517e-15
243   -6.1321e-16
244   -6.7806e-16
245   -9.2122e-16
246   7.4102e-16
247   -2.1849e-16
248   3.1970e-16
249   4.8082e-16
250   -2.2775e-16
251   2.5952e-17
252   -1.8575e-16
253   -2.9421e-16
254   -5.9102e-17
255   -3.2280e-16
256   -7.9946e-16
257   6.9200e-17
258   -6.5162e-16
259   1.1211e-15
260   -1.1315e-15
261   6.6660e-16
262   1.0322e-15
263   2.7331e-16
264   -2.6906e-16
265   9.4189e-16
266   -3.2647e-16
267   -9.0976e-16
268   -6.3599e-16
269   3.1605e-16
270   -8.2562e-16
271   -1.5885e-18
272   -2.7627e-16
273   5.4358e-16

Decomposition over AOs for the right alpha Dyson orbital:
-1.24841969e-04
-9.66493267e-04
-4.82121780e-03
-1.65532525e-02
-3.91018416e-02
-1.42895698e-02
-5.23810948e-02
1.78819090e-04
-2.12613684e-05
6.59724414e-16
5.29978895e-06
-3.41817718e-05
1.16373880e-04
1.59295699e-15
-7.58567374e-04
3.51506738e-05
-4.08625007e-04
6.14564772e-16
2.24493479e-03
5.09846410e-04
7.62628177e-04
2.03231718e-14
2.49874195e-04
-2.10065228e-04
5.08385685e-06
3.42092233e-14
-9.43146352e-06
4.53849539e-16
3.55420527e-05
-2.17715654e-16
4.95200038e-05
2.99101082e-05
2.23660526e-05
4.82303913e-05
2.01926485e-04
3.55677498e-05
1.77136843e-05
9.69523646e-16
-2.35028012e-05
-2.84852452e-05
-1.65895392e-04
6.11668950e-04
4.13644788e-06
-5.06720342e-06
-1.70432944e-16
3.14273738e-05
6.23681153e-05
-1.20267490e-04
-7.63681167e-07
-4.75905326e-06
-4.72366755e-05
2.76118892e-16
1.05553206e-03
8.17137771e-03
4.07637494e-02
1.39949979e-01
3.30637895e-01
1.20258838e-01
4.42814670e-01
6.11739989e-04
-4.28719569e-04
2.16896692e-15
1.55690306e-03
-6.99710723e-04
4.64198447e-04
-3.24365282e-16
1.16027904e-03
2.88497226e-04
-1.65393620e-04
9.81082731e-15
-4.45277103e-04
-7.05518987e-04
3.61382097e-04
-6.42852609e-15
-7.28634221e-04
-5.80851483e-05
1.14040763e-04
-2.37976101e-14
-2.61281944e-04
-5.76666146e-16
-2.27926556e-04
4.01865734e-17
1.55830000e-04
-3.37858656e-07
-2.48011464e-06
-1.29882508e-05
-4.15646111e-05
-1.23811146e-04
-1.68079153e-04
-1.81002510e-04
2.01211281e-04
-1.22033268e-04
4.72377558e-16
5.64656659e-04
5.09956351e-04
-3.03704001e-04
1.59808495e-15
-2.38672102e-04
-2.24237369e-04
1.28647787e-04
-4.27254229e-16
9.74998173e-05
2.50949195e-04
-1.35650693e-04
3.69015072e-16
-7.34767091e-04
-9.17295131e-05
1.29963601e-04
1.43305619e-14
-2.27748221e-04
1.12130757e-16
-1.10442264e-04
5.80156950e-16
1.21247645e-04
-2.70555641e-06
-2.09258403e-05
-1.04554937e-04
-3.58513302e-04
-8.53997317e-04
-3.64633581e-04
-1.12630726e-03
1.59398304e-05
-2.93683761e-05
8.29669232e-16
1.87582777e-04
-5.82061766e-05
-1.59727397e-04
3.76059795e-15
-1.47266902e-04
5.41105693e-04
4.00243263e-04
-2.26352591e-15
2.65968572e-03
-2.14933053e-04
-5.34467931e-04
5.25886963e-14
4.66746234e-04
-1.65085610e-04
-1.10713050e-04
2.76390845e-15
2.89150517e-06
1.38602008e-16
-1.52781019e-05
1.56761901e-16
-5.86894437e-05
-1.20148942e-10
2.24132560e-08
-5.71928231e-08
4.33185825e-07
-5.09949657e-06
-2.27522701e-05
1.47102828e-05
3.93258838e-06
7.56815405e-06
1.11356983e-15
5.37041682e-05
-3.17045016e-05
-1.08642349e-05
6.69987544e-16
-1.96807328e-04
9.60337507e-05
5.13019821e-05
4.66909416e-15
-8.40103271e-04
2.43144172e-04
1.21287822e-04
-7.93958013e-15
-5.90456700e-04
1.31681793e-04
1.42315307e-04
-1.49613025e-14
4.37758680e-06
-1.74553056e-16
4.41914212e-07
-2.89374903e-16
-1.49845372e-06
-2.45453351e-07
-1.73335775e-06
-9.57329908e-06
-2.88273494e-05
-1.06169986e-04
-2.16435075e-04
-5.92474072e-05
-7.69655231e-05
-3.85868519e-05
1.92493239e-15
5.26889176e-04
-5.71379245e-04
-2.85465133e-04
-7.02386752e-16
6.34295937e-06
1.31741927e-04
-8.08722487e-05
9.71264371e-15
-1.76935062e-04
3.67946127e-04
2.23567564e-04
-2.49595900e-14
1.36294103e-04
1.05760655e-04
-1.67992947e-05
1.02124886e-15
2.07642246e-04
9.35562423e-17
-9.45746881e-05
-2.68841836e-19
2.00897271e-04
-2.04011462e-07
-1.42613040e-06
-7.99350560e-06
-2.36759096e-05
-9.11908716e-05
-1.92752031e-04
-4.21260870e-05
-8.46092478e-06
8.42769980e-05
9.69879515e-16
4.63008148e-04
-8.73497772e-05
7.07239142e-04
2.40087443e-15
2.95145654e-05
1.04138403e-04
-1.16126753e-04
-5.30272200e-16
1.18341199e-05
2.63971550e-04
-1.88121664e-04
-1.95195449e-15
3.10830192e-04
-8.55205601e-05
3.45975149e-04
-3.47126698e-14
3.40026817e-06
8.70028364e-18
-8.49941623e-05
2.26026448e-16
-3.10424232e-04
3.18354018e-04
2.46465681e-03
1.22941479e-02
4.22130168e-02
9.97043999e-02
3.64275332e-02
1.33510665e-01
-2.73009283e-05
7.18629758e-05
1.55762372e-15
5.74780457e-04
-5.00506538e-05
-1.40189506e-05
5.79107499e-16
7.44633412e-04
-4.05404244e-04
2.58901579e-04
7.10892402e-15
-3.92529166e-03
5.67307431e-04
-1.76133360e-04
-4.03696245e-14
2.52404891e-05
1.20387925e-04
3.88419409e-05
-2.56031637e-14
2.40631348e-05
3.13527675e-16
-3.14206970e-05
-5.75538327e-17
1.02057493e-05
1.10428515e-04
1.76541273e-04
1.32187312e-04
6.56420736e-05
-8.00026403e-05
5.24976010e-05
5.11247605e-16
   *****

     End transition

 Dyson orbitals calculation:   CPU 8.13 s  wall 4.57 s

 Total ccman2 time:   CPU 17014.86 s  wall 5475.42 s


 --------------------------------------------------------------
             Orbital Energies (a.u.) and Symmetries
 --------------------------------------------------------------

 Alpha MOs, Restricted
 -- Occupied --                  
-20.550 -20.545 -15.649 -15.632 -11.427 -11.388 -11.346 -11.261
  1 A'    2 A'    3 A'    4 A'    5 A'    6 A'    7 A'    8 A'                 
 -1.442  -1.404  -1.318  -1.250  -1.093  -0.938  -0.906  -0.812
  9 A'   10 A'   11 A'   12 A'   13 A'   14 A'   15 A'   16 A'                 
 -0.770  -0.718  -0.681  -0.671  -0.657  -0.619  -0.605  -0.573
 17 A'   18 A'   19 A'    1 A"   20 A'   21 A'   22 A'    2 A"                 
 -0.528  -0.487  -0.452  -0.438  -0.371
  3 A"   23 A'   24 A'    4 A"    5 A"                                         
 -- Virtual --                   
  0.005   0.019   0.020   0.022   0.031   0.033   0.035   0.036
 25 A'   26 A'    6 A"   27 A'   28 A'   29 A'   30 A'    7 A"                 
  0.038   0.046   0.047   0.049   0.053   0.054   0.055   0.068
  8 A"   31 A'   32 A'   33 A'   34 A'    9 A"   35 A'   36 A'                 
  0.072   0.072   0.079   0.085   0.086   0.088   0.095   0.097
 10 A"   37 A'   11 A"   38 A'   12 A"   39 A'   40 A'   41 A'                 
  0.112   0.116   0.118   0.120   0.127   0.131   0.134   0.137
 13 A"   14 A"   42 A'   43 A'   44 A'   45 A'   46 A'   47 A'                 
  0.138   0.155   0.162   0.164   0.172   0.184   0.189   0.195
 48 A'   15 A"   49 A'   50 A'   16 A"   51 A'   17 A"   52 A'                 
  0.209   0.210   0.224   0.230   0.235   0.241   0.243   0.260
 53 A'   18 A"   54 A'   55 A'   56 A'   19 A"   57 A'   58 A'                 
  0.266   0.270   0.278   0.279   0.286   0.296   0.300   0.333
 59 A'   60 A'   20 A"   61 A'   62 A'   21 A"   63 A'   22 A"                 
  0.333   0.347   0.373   0.388   0.391   0.405   0.410   0.410
 64 A'   65 A'   66 A'   67 A'   68 A'   69 A'   23 A"   70 A'                 
  0.420   0.422   0.441   0.449   0.455   0.463   0.481   0.482
 24 A"   71 A'   72 A'   73 A'   74 A'   75 A'   76 A'   77 A'                 
  0.505   0.529   0.545   0.558   0.615   0.630   0.655   0.706
 78 A'   79 A'   80 A'   81 A'   82 A'   83 A'   84 A'   85 A'                 
  0.734   0.740   0.761   0.776   0.778   0.799   0.822   0.824
 86 A'   25 A"   87 A'   26 A"   88 A'   27 A"   28 A"   89 A'                 
  0.878   0.888   0.938   0.963   0.971   0.979   1.008   1.015
 90 A'   91 A'   92 A'   93 A'   94 A'   95 A'   96 A'   97 A'                 
  1.029   1.042   1.061   1.093   1.100   1.114   1.159   1.227
 98 A'   29 A"   99 A'   30 A"  100 A'  101 A'  102 A'   31 A"                 
  1.242   1.245   1.270   1.301   1.368   1.370   1.393   1.406
 32 A"  103 A'  104 A'  105 A'  106 A'   33 A"   34 A"   35 A"                 
  1.421   1.441   1.460   1.464   1.513   1.515   1.543   1.557
 36 A"  107 A'  108 A'   37 A"   38 A"  109 A'  110 A'  111 A'                 
  1.583   1.760   1.777   1.803   1.814   1.877   1.899   1.915
112 A'  113 A'  114 A'  115 A'   39 A"  116 A'   40 A"  117 A'                 
  1.929   1.952   1.980   2.013   2.014   2.067   2.124   2.143
 41 A"  118 A'  119 A'   42 A"  120 A'  121 A'  122 A'  123 A'                 
  2.186   2.223   2.236   2.283   2.299   2.340   2.358   2.532
124 A'   43 A"  125 A'  126 A'  127 A'   44 A"  128 A'  129 A'                 
  2.566   2.589   2.643   2.668   2.728   2.807   2.822   2.851
 45 A"  130 A'   46 A"  131 A'   47 A"  132 A'   48 A"  133 A'                 
  2.932   2.957   3.006   3.019   3.048   3.094   3.168   3.181
134 A'  135 A'  136 A'  137 A'  138 A'   49 A"   50 A"  139 A'                 
  3.184   3.211   3.263   3.271   3.297   3.310   3.325   3.347
 51 A"  140 A'   52 A"  141 A'  142 A'   53 A"  143 A'   54 A"                 
  3.401   3.515   3.588   3.756   3.766   3.819   3.840   3.876
144 A'  145 A'  146 A'   55 A"   56 A"  147 A'  148 A'  149 A'                 
  3.914   3.959   4.017   4.049   4.106   4.288   4.305   4.364
150 A'  151 A'  152 A'  153 A'  154 A'  155 A'   57 A"   58 A"                 
  4.411   4.485   4.605   5.012   5.158   5.288   5.441   5.553
156 A'  157 A'  158 A'  159 A'  160 A'  161 A'  162 A'  163 A'                 
  5.625   5.633   5.690   5.713   5.782   5.864   5.902   6.438
 59 A"   60 A"  164 A'  165 A'  166 A'  167 A'  168 A'  169 A'                 
  6.445   7.668   7.729   9.888   9.934  20.639  20.695  20.726
170 A'  171 A'  172 A'  173 A'  174 A'  175 A'  176 A'  177 A'                 
 20.897  30.195  30.235  40.894  40.935  80.190  80.235  80.273
178 A'  179 A'  180 A'  181 A'  182 A'  183 A'  184 A'  185 A'                 
 80.428 116.314 116.350 159.240 159.273 322.013 322.053 322.094
186 A'  187 A'  188 A'  189 A'  190 A'  191 A'  192 A'  193 A'                 
322.233 460.413 460.445 631.938 631.9651431.5641431.6041431.646
194 A'  195 A'  196 A'  197 A'  198 A'  199 A'  200 A'  201 A'                 
*******2012.8872012.9162759.3342759.3578749.7838749.8248749.866
202 A'  203 A'  204 A'  205 A'  206 A'  207 A'  208 A'  209 A'                 
***************************************
210 A'  211 A'  212 A'  213 A'  214 A'                                         

 Beta MOs, Restricted
 -- Occupied --                  
-20.550 -20.545 -15.649 -15.632 -11.427 -11.388 -11.346 -11.261
  1 A'    2 A'    3 A'    4 A'    5 A'    6 A'    7 A'    8 A'                 
 -1.442  -1.404  -1.318  -1.250  -1.093  -0.938  -0.906  -0.812
  9 A'   10 A'   11 A'   12 A'   13 A'   14 A'   15 A'   16 A'                 
 -0.770  -0.718  -0.681  -0.671  -0.657  -0.619  -0.605  -0.573
 17 A'   18 A'   19 A'    1 A"   20 A'   21 A'   22 A'    2 A"                 
 -0.528  -0.487  -0.452  -0.438  -0.371
  3 A"   23 A'   24 A'    4 A"    5 A"                                         
 -- Virtual --                   
  0.005   0.019   0.020   0.022   0.031   0.033   0.035   0.036
 25 A'   26 A'    6 A"   27 A'   28 A'   29 A'   30 A'    7 A"                 
  0.038   0.046   0.047   0.049   0.053   0.054   0.055   0.068
  8 A"   31 A'   32 A'   33 A'   34 A'    9 A"   35 A'   36 A'                 
  0.072   0.072   0.079   0.085   0.086   0.088   0.095   0.097
 10 A"   37 A'   11 A"   38 A'   12 A"   39 A'   40 A'   41 A'                 
  0.112   0.116   0.118   0.120   0.127   0.131   0.134   0.137
 13 A"   14 A"   42 A'   43 A'   44 A'   45 A'   46 A'   47 A'                 
  0.138   0.155   0.162   0.164   0.172   0.184   0.189   0.195
 48 A'   15 A"   49 A'   50 A'   16 A"   51 A'   17 A"   52 A'                 
  0.209   0.210   0.224   0.230   0.235   0.241   0.243   0.260
 53 A'   18 A"   54 A'   55 A'   56 A'   19 A"   57 A'   58 A'                 
  0.266   0.270   0.278   0.279   0.286   0.296   0.300   0.333
 59 A'   60 A'   20 A"   61 A'   62 A'   21 A"   63 A'   22 A"                 
  0.333   0.347   0.373   0.388   0.391   0.405   0.410   0.410
 64 A'   65 A'   66 A'   67 A'   68 A'   69 A'   23 A"   70 A'                 
  0.420   0.422   0.441   0.449   0.455   0.463   0.481   0.482
 24 A"   71 A'   72 A'   73 A'   74 A'   75 A'   76 A'   77 A'                 
  0.505   0.529   0.545   0.558   0.615   0.630   0.655   0.706
 78 A'   79 A'   80 A'   81 A'   82 A'   83 A'   84 A'   85 A'                 
  0.734   0.740   0.761   0.776   0.778   0.799   0.822   0.824
 86 A'   25 A"   87 A'   26 A"   88 A'   27 A"   28 A"   89 A'                 
  0.878   0.888   0.938   0.963   0.971   0.979   1.008   1.015
 90 A'   91 A'   92 A'   93 A'   94 A'   95 A'   96 A'   97 A'                 
  1.029   1.042   1.061   1.093   1.100   1.114   1.159   1.227
 98 A'   29 A"   99 A'   30 A"  100 A'  101 A'  102 A'   31 A"                 
  1.242   1.245   1.270   1.301   1.368   1.370   1.393   1.406
 32 A"  103 A'  104 A'  105 A'  106 A'   33 A"   34 A"   35 A"                 
  1.421   1.441   1.460   1.464   1.513   1.515   1.543   1.557
 36 A"  107 A'  108 A'   37 A"   38 A"  109 A'  110 A'  111 A'                 
  1.583   1.760   1.777   1.803   1.814   1.877   1.899   1.915
112 A'  113 A'  114 A'  115 A'   39 A"  116 A'   40 A"  117 A'                 
  1.929   1.952   1.980   2.013   2.014   2.067   2.124   2.143
 41 A"  118 A'  119 A'   42 A"  120 A'  121 A'  122 A'  123 A'                 
  2.186   2.223   2.236   2.283   2.299   2.340   2.358   2.532
124 A'   43 A"  125 A'  126 A'  127 A'   44 A"  128 A'  129 A'                 
  2.566   2.589   2.643   2.668   2.728   2.807   2.822   2.851
 45 A"  130 A'   46 A"  131 A'   47 A"  132 A'   48 A"  133 A'                 
  2.932   2.957   3.006   3.019   3.048   3.094   3.168   3.181
134 A'  135 A'  136 A'  137 A'  138 A'   49 A"   50 A"  139 A'                 
  3.184   3.211   3.263   3.271   3.297   3.310   3.325   3.347
 51 A"  140 A'   52 A"  141 A'  142 A'   53 A"  143 A'   54 A"                 
  3.401   3.515   3.588   3.756   3.766   3.819   3.840   3.876
144 A'  145 A'  146 A'   55 A"   56 A"  147 A'  148 A'  149 A'                 
  3.914   3.959   4.017   4.049   4.106   4.288   4.305   4.364
150 A'  151 A'  152 A'  153 A'  154 A'  155 A'   57 A"   58 A"                 
  4.411   4.485   4.605   5.012   5.158   5.288   5.441   5.553
156 A'  157 A'  158 A'  159 A'  160 A'  161 A'  162 A'  163 A'                 
  5.625   5.633   5.690   5.713   5.782   5.864   5.902   6.438
 59 A"   60 A"  164 A'  165 A'  166 A'  167 A'  168 A'  169 A'                 
  6.445   7.668   7.729   9.888   9.934  20.639  20.695  20.726
170 A'  171 A'  172 A'  173 A'  174 A'  175 A'  176 A'  177 A'                 
 20.897  30.195  30.235  40.894  40.935  80.190  80.235  80.273
178 A'  179 A'  180 A'  181 A'  182 A'  183 A'  184 A'  185 A'                 
 80.428 116.314 116.350 159.240 159.273 322.013 322.053 322.094
186 A'  187 A'  188 A'  189 A'  190 A'  191 A'  192 A'  193 A'                 
322.233 460.413 460.445 631.938 631.9651431.5641431.6041431.646
194 A'  195 A'  196 A'  197 A'  198 A'  199 A'  200 A'  201 A'                 
*******2012.8872012.9162759.3342759.3578749.7838749.8248749.866
202 A'  203 A'  204 A'  205 A'  206 A'  207 A'  208 A'  209 A'                 
***************************************
210 A'  211 A'  212 A'  213 A'  214 A'                                         
 --------------------------------------------------------------

          Ground-State Mulliken Net Atomic Charges

     Atom                 Charge (a.u.)
  ----------------------------------------
      1 C                     0.041345
      2 H                     0.361959
      3 H                     0.163670
      4 H                     0.394985
      5 C                     0.245726
      6 O                    -0.078193
      7 C                     0.021288
      8 O                    -0.118248
      9 N                    -0.604359
     10 N                    -0.410869
     11 C                    -0.261285
     12 H                     0.243982
  ----------------------------------------
  Sum of atomic charges =     0.000000

 -----------------------------------------------------------------
                    Cartesian Multipole Moments
 -----------------------------------------------------------------
    Charge (ESU x 10^10)
                 0.0000
    Dipole Moment (Debye)
         X      -1.3839      Y      -4.9543      Z       0.0000
       Tot       5.1439
    Quadrupole Moments (Debye-Ang)
        XX     -60.6807     XY       2.5027     YY     -38.3445
        XZ      -0.0000     YZ      -0.0000     ZZ     -46.9509
    Octopole Moments (Debye-Ang^2)
       XXX     -11.3708    XXY     -34.8372    XYY      -5.2065
       YYY      -9.0564    XXZ       0.0000    XYZ      -0.0000
       YYZ       0.0000    XZZ      -1.9200    YZZ       4.3285
       ZZZ       0.0000
    Hexadecapole Moments (Debye-Ang^3)
      XXXX    -728.3246   XXXY      12.7275   XXYY    -177.0147
      XYYY      13.2604   YYYY    -304.5155   XXXZ      -0.0000
      XXYZ      -0.0000   XYYZ       0.0000   YYYZ      -0.0000
      XXZZ    -114.2361   XYZZ       2.9662   YYZZ     -75.7730
      XZZZ      -0.0000   YZZZ      -0.0000   ZZZZ     -47.0015
 -----------------------------------------------------------------
Archival summary:
1\1\n-62-29-10\SP\ProcedureUnspecified\BasisUnspecified\2244\malop\WedJun511:34:012019WedJun511:34:012019\0\\#,ProcedureUnspecified,BasisUnspecified,\\0,1\N\H,1,1.01081\C,1,1.37966,2,115.327\O,3,1.21479,1,124.21,2,0,0\N,3,1.3852,1,112.713,2,180,0\H,5,1.00619,3,115.142,1,-180,0\C,5,1.37008,3,123.626,1,-0,0\H,7,1.07981,5,115.516,3,180,0\C,7,1.34802,5,121.979,3,-0,0\H,9,1.07615,7,121.525,5,-180,0\C,1,1.40335,2,116.035,3,-180,0\O,11,1.21832,1,120.541,2,0,0\\HF=-412.580334\\@

 Total job time:  5536.60s(wall), 17198.90s(cpu) 
 Wed Jun  5 11:34:01 2019

======= MOLDEN-FORMATTED INPUT FILE FOLLOWS =======
[Molden Format]
[Atoms] (Angs)
  C      1    6     -0.00714236     -1.70213747     -0.00000000
  H      2    1     -2.06882847     -1.44022412      0.00000000
  H      3    1     -0.12337987     -2.77567521      0.00000000
  H      4    1      0.04651892      1.98813947     -0.00000000
  C      5    6     -1.21953563      0.40211669      0.00000000
  O      6    8     -2.25921553      1.03043814      0.00000000
  C      7    6      1.28797806      0.34644937     -0.00000000
  O      8    8      2.31273661      1.00537216     -0.00000000
  N      9    7      0.03446295      0.97739857     -0.00000000
  N     10    7     -1.17287765     -0.98229824      0.00000000
  C     11    6      1.20107039     -1.10433419     -0.00000000
  H     12    1      2.11220096     -1.67699125     -0.00000000

======= END OF MOLDEN-FORMATTED INPUT FILE =======


        *************************************************************
        *                                                           *
        *  Thank you very much for using Q-Chem.  Have a nice day.  *
        *                                                           *
        *************************************************************


