                  Welcome to Q-Chem
     A Quantum Leap Into The Future Of Chemistry


 Q-Chem 5.2 (devel), Q-Chem, Inc., Pleasanton, CA (2019)

 Yihan Shao,  Zhengting Gan,  E. Epifanovsky,  A. T. B. Gilbert,  M. Wormit,  
 J. Kussmann,  A. W. Lange,  A. Behn,  Jia Deng,  Xintian Feng,  D. Ghosh,  
 M. Goldey,  P. R. Horn,  L. D. Jacobson,  I. Kaliman,  T. Kus,  A. Landau,  
 Jie Liu,  E. I. Proynov,  R. M. Richard,  R. P. Steele,  E. J. Sundstrom,  
 H. L. Woodcock III,  P. M. Zimmerman,  D. Zuev,  B. Albrecht,  E. Alguire,  
 S. A. Baeppler,  D. Barton,  Z. Benda,  Y. A. Bernard,  E. J. Berquist,  
 K. B. Bravaya,  H. Burton,  D. Casanova,  Chun-Min Chang,  Yunqing Chen,  
 A. Chien,  K. D. Closser,  M. P. Coons,  S. Coriani,  S. Dasgupta,  
 A. L. Dempwolff,  M. Diedenhofen,  Hainam Do,  R. G. Edgar,  Po-Tung Fang,  
 S. Faraji,  S. Fatehi,  Qingguo Feng,  K. D. Fenk,  J. Fosso-Tande,  
 J. Gayvert,  Qinghui Ge,  A. Ghysels,  G. Gidofalvi,  J. Gomes,  
 J. Gonthier,  A. Gunina,  D. Hait,  M. W. D. Hanson-Heine,  
 P. H. P. Harbach,  A. W. Hauser,  M. F. Herbst,  J. E. Herr,  
 E. G. Hohenstein,  Z. C. Holden,  Kerwin Hui,  B. C. Huynh,  T.-C. Jagau,  
 Hyunjun Ji,  B. Kaduk,  K. Khistyaev,  Jaehoon Kim,  P. Klunzinger,  K. Koh,  
 D. Kosenkov,  L. Koulias,  T. Kowalczyk,  C. M. Krauter,  A. Kunitsa,  
 Ka Un Lao,  A. Laurent,  K. V. Lawler,  Joonho Lee,  D. Lefrancois,  
 S. Lehtola,  D. S. Levine,  Yi-Pei Li,  You-Sheng Lin,  Fenglai Liu,  
 E. Livshits,  A. Luenser,  P. Manohar,  E. Mansoor,  S. F. Manzer,  
 Shan-Ping Mao,  Yuezhi Mao,  N. Mardirossian,  A. V. Marenich,  
 T. Markovich,  L. A. Martinez-Martinez,  S. A. Maurer,  N. J. Mayhall,  
 S. C. McKenzie,  J.-M. Mewes,  P. Morgante,  A. F. Morrison,  
 J. W. Mullinax,  K. Nanda,  T. S. Nguyen-Beck,  R. Olivares-Amaya,  
 J. A. Parkhill,  Zheng Pei,  T. M. Perrine,  F. Plasser,  P. Pokhilko,  
 S. Prager,  A. Prociuk,  E. Ramos,  D. R. Rehn,  F. Rob,  M. Scheurer,  
 M. Schneider,  N. Sergueev,  S. M. Sharada,  S. Sharma,  D. W. Small,  
 T. Stauch,  T. Stein,  Yu-Chuan Su,  A. J. W. Thom,  A. Tkatchenko,  
 T. Tsuchimochi,  N. M. Tubman,  L. Vogt,  M. L. Vidal,  O. Vydrov,  
 M. A. Watson,  J. Wenzel,  M. de Wergifosse,  T. A. Wesolowski,  A. White,  
 J. Witte,  A. Yamada,  Jun Yang,  K. Yao,  S. Yeganeh,  S. R. Yost,  
 Zhi-Qiang You,  A. Zech,  Igor Ying Zhang,  Xing Zhang,  Yan Zhao,  
 Ying Zhu,  B. R. Brooks,  G. K. L. Chan,  C. J. Cramer,  M. S. Gordon,  
 W. J. Hehre,  A. Klamt,  M. W. Schmidt,  C. D. Sherrill,  D. G. Truhlar,  
 A. Aspuru-Guzik,  R. Baer,  A. T. Bell,  N. A. Besley,  Jeng-Da Chai,  
 A. E. DePrince, III,  R. A. DiStasio Jr.,  A. Dreuw,  B. D. Dunietz,  
 T. R. Furlani,  Chao-Ping Hsu,  Yousung Jung,  Jing Kong,  D. S. Lambrecht,  
 WanZhen Liang,  C. Ochsenfeld,  V. A. Rassolov,  L. V. Slipchenko,  
 J. E. Subotnik,  T. Van Voorhis,  J. M. Herbert,  A. I. Krylov,  
 P. M. W. Gill,  M. Head-Gordon

 Contributors to earlier versions of Q-Chem not listed above: 
 R. D. Adamson,  B. Austin,  J. Baker,  G. J. O. Beran,  K. Brandhorst,  
 S. T. Brown,  E. F. C. Byrd,  A. K. Chakraborty,  C.-L. Cheng,  
 Siu Hung Chien,  D. M. Chipman,  D. L. Crittenden,  H. Dachsel,  
 R. J. Doerksen,  A. D. Dutoi,  L. Fusti-Molnar,  W. A. Goddard III,  
 A. Golubeva-Zadorozhnaya,  S. R. Gwaltney,  G. Hawkins,  A. Heyden,  
 S. Hirata,  G. Kedziora,  F. J. Keil,  C. Kelley,  Jihan Kim,  R. A. King,  
 R. Z. Khaliullin,  P. P. Korambath,  W. Kurlancheek,  A. M. Lee,  M. S. Lee,  
 S. V. Levchenko,  Ching Yeh Lin,  D. Liotard,  R. C. Lochan,  I. Lotan,  
 P. E. Maslen,  N. Nair,  D. P. O'Neill,  D. Neuhauser,  E. Neuscamman,  
 C. M. Oana,  R. Olson,  B. Peters,  R. Peverati,  P. A. Pieniazek,  
 Y. M. Rhee,  J. Ritchie,  M. A. Rohrdanz,  E. Rosta,  N. J. Russ,  
 H. F. Schaefer III,  N. E. Schultz,  N. Shenvi,  A. C. Simmonett,  A. Sodt,  
 D. Stuck,  K. S. Thanthiriwatte,  V. Vanovschi,  Tao Wang,  A. Warshel,  
 C. F. Williams,  Q. Wu,  X. Xu,  W. Zhang

 Please cite Q-Chem as follows:
 Y. Shao et al., Mol. Phys. 113, 184-215 (2015)
 DOI: 10.1080/00268976.2014.952696

 Q-Chem 5.2.0 for Intel X86 EM64T Linux

 Parts of Q-Chem use Armadillo 8.300.2 (Tropical Shenanigans).
 http://arma.sourceforge.net/

 Q-Chem begins on Mon Jun  3 18:06:05 2019  

n-62-29-9
Host: 0

     Scratch files written to /work1/malop/qc_8382784.hnode2/qchem18242//
NAlpha2: 58
NElect   58
Mult     1

Checking the input file for inconsistencies... 	...done.

--------------------------------------------------------------
User input:
--------------------------------------------------------------
$comment
Uracil XPS C K-edge 6-311(2+,+)G** (ucC)
geometry optimizion: mp2/cc-pvtz
$end

$molecule
0 1
C        0.052842   -1.701332    0.000000
H       -2.016793   -1.512231    0.000000
H       -0.025494   -2.778299    0.000000
H       -0.023568    1.988544    0.000000
C       -1.232948    0.358893    0.000000
O       -2.294123    0.950188    0.000000
C        1.274970    0.391620    0.000000
O        2.275873    1.086244    0.000000
N        0.000000    0.978006    0.000000
N       -1.137535   -1.023018    0.000000
C        1.239239   -1.061325    0.000000
H        2.169983   -1.601520    0.000000
$end

$rem
   JOB_TYPE  =  SP
   BASIS  = general
   print_general_basis = true
   METHOD  =  EOM-CCSD
   CVS_IP_STATES = [12,4]
   EE_STATES = [3,3]
   eom_davidson_convergence = 4
   cvs_eom_shift = 10500
   n_frozen_core = fc
   cc_trans_prop = true
   cc_memory = 40000
   cc_do_dyson = true
   MOLDEN_FORMAT = TRUE
$end

$basis
H    0
6-311(2+,+)G**
****
O    0
S    1    1.000000
   8.58850000E+03    1.89515000E-03
S    1    1.000000
   1.29723000E+03    1.43859000E-02
S    1    1.000000
   2.99296000E+02    7.07320000E-02
S    1    1.000000
   8.73771000E+01    2.40001000E-01
S    1    1.000000
   2.56789000E+01    5.94797000E-01
S    1    1.000000
   3.74004000E+00    2.80802000E-01
SP   3    1.000000
   4.21175000E+01    1.13889000E-01   3.65114000E-02
   9.62837000E+00    9.20811000E-01   2.37153000E-01
   2.85332000E+00   -3.27447000E-03   8.19702000E-01
SP   1    1.000000
   9.05661000E-01    1.00000000E+00   1.00000000E+00
SP   1    1.000000
   2.55611000E-01    1.00000000E+00   1.00000000E+00
SP   1    1.000000
   8.45000000E-02    1.00000000E+00   1.00000000E+00
SP   1    1.000000
   2.54518072E-02    1.00000000E+00   1.00000000E+00
D    1    1.000000
   1.29200000E+00    1.00000000E+00
****
N    0
S    1    1.000000
   6.29348000E+03    1.96979000E-03
S    1    1.000000
   9.49044000E+02    1.49613000E-02
S    1    1.000000
   2.18776000E+02    7.35006000E-02
S    1    1.000000
   6.36916000E+01    2.48937000E-01
S    1    1.000000
   1.88282000E+01    6.02460000E-01
S    1    1.000000
   2.72023000E+00    2.56202000E-01
SP   3    1.000000
   3.06331000E+01    1.11906000E-01   3.83119000E-02
   7.02614000E+00    9.21666000E-01   2.37403000E-01
   2.11205000E+00   -2.56919000E-03   8.17592000E-01
SP   1    1.000000
   6.84009000E-01    1.00000000E+00   1.00000000E+00
SP   1    1.000000
   2.00878000E-01    1.00000000E+00   1.00000000E+00
SP   1    1.000000
   6.39000000E-02    1.00000000E+00   1.00000000E+00
SP   1    1.000000
   1.92469880E-02    1.00000000E+00   1.00000000E+00
D    1    1.000000
   9.13000000E-01    1.00000000E+00
****
C    0
S    1    1.000000
   4.56324000E+03    1.96665000E-03
S    1    1.000000
   6.82024000E+02    1.52306000E-02
S    1    1.000000
   1.54973000E+02    7.61269000E-02
S    1    1.000000
   4.44553000E+01    2.60801000E-01
S    1    1.000000
   1.30290000E+01    6.16462000E-01
S    1    1.000000
   1.82773000E+00    2.21006000E-01
SP   3    1.000000
   2.09642000E+01    1.14660000E-01   4.02487000E-02
   4.80331000E+00    9.19999000E-01   2.37594000E-01
   1.45933000E+00   -3.03068000E-03   8.15854000E-01
SP   1    1.000000
   4.83456000E-01    1.00000000E+00   1.00000000E+00
SP   1    1.000000
   1.45585000E-01    1.00000000E+00   1.00000000E+00
SP   1    1.000000
   4.38000000E-02    1.00000000E+00   1.00000000E+00
SP   1    1.000000
   1.31927711E-02    1.00000000E+00   1.00000000E+00
D    1    1.000000
   6.26000000E-01    1.00000000E+00
****
$end
--------------------------------------------------------------
 ----------------------------------------------------------------
             Standard Nuclear Orientation (Angstroms)
    I     Atom           X                Y                Z
 ----------------------------------------------------------------
    1      C      -0.0071423615    -1.7021374661    -0.0000000000
    2      H      -2.0688284730    -1.4402241233     0.0000000000
    3      H      -0.1233798667    -2.7756752113     0.0000000000
    4      H       0.0465189185     1.9881394681    -0.0000000000
    5      C      -1.2195356258     0.4021166886     0.0000000000
    6      O      -2.2592155329     1.0304381418     0.0000000000
    7      C       1.2879780632     0.3464493659    -0.0000000000
    8      O       2.3127366072     1.0053721559    -0.0000000000
    9      N       0.0344629504     0.9773985746    -0.0000000000
   10      N      -1.1728776526    -0.9822982369     0.0000000000
   11      C       1.2010703878    -1.1043341925    -0.0000000000
   12      H       2.1122009607    -1.6769912546    -0.0000000000
 ----------------------------------------------------------------
 Molecular Point Group                 Cs    NOp =  2
 Largest Abelian Subgroup              Cs    NOp =  2
 Nuclear Repulsion Energy =         357.01163035 hartrees
 There are       29 alpha and       29 beta electrons
 Requested basis set is non-standard
Basis set in general basis input format:
-----------------------------------------------------------------------
$basis
C    0
S    1    1.000000
   4.56324000E+03    1.96665000E-03 
S    1    1.000000
   6.82024000E+02    1.52306000E-02 
S    1    1.000000
   1.54973000E+02    7.61269000E-02 
S    1    1.000000
   4.44553000E+01    2.60801000E-01 
S    1    1.000000
   1.30290000E+01    6.16462000E-01 
S    1    1.000000
   1.82773000E+00    2.21006000E-01 
SP   3    1.000000
   2.09642000E+01    1.14660000E-01   4.02487000E-02 
   4.80331000E+00    9.19999000E-01   2.37594000E-01 
   1.45933000E+00   -3.03068000E-03   8.15854000E-01 
SP   1    1.000000
   4.83456000E-01    1.00000000E+00   1.00000000E+00 
SP   1    1.000000
   1.45585000E-01    1.00000000E+00   1.00000000E+00 
SP   1    1.000000
   4.38000000E-02    1.00000000E+00   1.00000000E+00 
SP   1    1.000000
   1.31927711E-02    1.00000000E+00   1.00000000E+00 
D    1    1.000000
   6.26000000E-01    1.00000000E+00 
****
H    0
S    3    1.000000
   3.38650000E+01    2.54938000E-02 
   5.09479000E+00    1.90373000E-01 
   1.15879000E+00    8.52161000E-01 
S    1    1.000000
   3.25840000E-01    1.00000000E+00 
S    1    1.000000
   1.02741000E-01    1.00000000E+00 
S    1    1.000000
   3.60000000E-02    1.00000000E+00 
P    1    1.000000
   7.50000000E-01    1.00000000E+00 
****
H    0
S    3    1.000000
   3.38650000E+01    2.54938000E-02 
   5.09479000E+00    1.90373000E-01 
   1.15879000E+00    8.52161000E-01 
S    1    1.000000
   3.25840000E-01    1.00000000E+00 
S    1    1.000000
   1.02741000E-01    1.00000000E+00 
S    1    1.000000
   3.60000000E-02    1.00000000E+00 
P    1    1.000000
   7.50000000E-01    1.00000000E+00 
****
H    0
S    3    1.000000
   3.38650000E+01    2.54938000E-02 
   5.09479000E+00    1.90373000E-01 
   1.15879000E+00    8.52161000E-01 
S    1    1.000000
   3.25840000E-01    1.00000000E+00 
S    1    1.000000
   1.02741000E-01    1.00000000E+00 
S    1    1.000000
   3.60000000E-02    1.00000000E+00 
P    1    1.000000
   7.50000000E-01    1.00000000E+00 
****
C    0
S    1    1.000000
   4.56324000E+03    1.96665000E-03 
S    1    1.000000
   6.82024000E+02    1.52306000E-02 
S    1    1.000000
   1.54973000E+02    7.61269000E-02 
S    1    1.000000
   4.44553000E+01    2.60801000E-01 
S    1    1.000000
   1.30290000E+01    6.16462000E-01 
S    1    1.000000
   1.82773000E+00    2.21006000E-01 
SP   3    1.000000
   2.09642000E+01    1.14660000E-01   4.02487000E-02 
   4.80331000E+00    9.19999000E-01   2.37594000E-01 
   1.45933000E+00   -3.03068000E-03   8.15854000E-01 
SP   1    1.000000
   4.83456000E-01    1.00000000E+00   1.00000000E+00 
SP   1    1.000000
   1.45585000E-01    1.00000000E+00   1.00000000E+00 
SP   1    1.000000
   4.38000000E-02    1.00000000E+00   1.00000000E+00 
SP   1    1.000000
   1.31927711E-02    1.00000000E+00   1.00000000E+00 
D    1    1.000000
   6.26000000E-01    1.00000000E+00 
****
O    0
S    1    1.000000
   8.58850000E+03    1.89515000E-03 
S    1    1.000000
   1.29723000E+03    1.43859000E-02 
S    1    1.000000
   2.99296000E+02    7.07320000E-02 
S    1    1.000000
   8.73771000E+01    2.40001000E-01 
S    1    1.000000
   2.56789000E+01    5.94797000E-01 
S    1    1.000000
   3.74004000E+00    2.80802000E-01 
SP   3    1.000000
   4.21175000E+01    1.13889000E-01   3.65114000E-02 
   9.62837000E+00    9.20811000E-01   2.37153000E-01 
   2.85332000E+00   -3.27447000E-03   8.19702000E-01 
SP   1    1.000000
   9.05661000E-01    1.00000000E+00   1.00000000E+00 
SP   1    1.000000
   2.55611000E-01    1.00000000E+00   1.00000000E+00 
SP   1    1.000000
   8.45000000E-02    1.00000000E+00   1.00000000E+00 
SP   1    1.000000
   2.54518072E-02    1.00000000E+00   1.00000000E+00 
D    1    1.000000
   1.29200000E+00    1.00000000E+00 
****
C    0
S    1    1.000000
   4.56324000E+03    1.96665000E-03 
S    1    1.000000
   6.82024000E+02    1.52306000E-02 
S    1    1.000000
   1.54973000E+02    7.61269000E-02 
S    1    1.000000
   4.44553000E+01    2.60801000E-01 
S    1    1.000000
   1.30290000E+01    6.16462000E-01 
S    1    1.000000
   1.82773000E+00    2.21006000E-01 
SP   3    1.000000
   2.09642000E+01    1.14660000E-01   4.02487000E-02 
   4.80331000E+00    9.19999000E-01   2.37594000E-01 
   1.45933000E+00   -3.03068000E-03   8.15854000E-01 
SP   1    1.000000
   4.83456000E-01    1.00000000E+00   1.00000000E+00 
SP   1    1.000000
   1.45585000E-01    1.00000000E+00   1.00000000E+00 
SP   1    1.000000
   4.38000000E-02    1.00000000E+00   1.00000000E+00 
SP   1    1.000000
   1.31927711E-02    1.00000000E+00   1.00000000E+00 
D    1    1.000000
   6.26000000E-01    1.00000000E+00 
****
O    0
S    1    1.000000
   8.58850000E+03    1.89515000E-03 
S    1    1.000000
   1.29723000E+03    1.43859000E-02 
S    1    1.000000
   2.99296000E+02    7.07320000E-02 
S    1    1.000000
   8.73771000E+01    2.40001000E-01 
S    1    1.000000
   2.56789000E+01    5.94797000E-01 
S    1    1.000000
   3.74004000E+00    2.80802000E-01 
SP   3    1.000000
   4.21175000E+01    1.13889000E-01   3.65114000E-02 
   9.62837000E+00    9.20811000E-01   2.37153000E-01 
   2.85332000E+00   -3.27447000E-03   8.19702000E-01 
SP   1    1.000000
   9.05661000E-01    1.00000000E+00   1.00000000E+00 
SP   1    1.000000
   2.55611000E-01    1.00000000E+00   1.00000000E+00 
SP   1    1.000000
   8.45000000E-02    1.00000000E+00   1.00000000E+00 
SP   1    1.000000
   2.54518072E-02    1.00000000E+00   1.00000000E+00 
D    1    1.000000
   1.29200000E+00    1.00000000E+00 
****
N    0
S    1    1.000000
   6.29348000E+03    1.96979000E-03 
S    1    1.000000
   9.49044000E+02    1.49613000E-02 
S    1    1.000000
   2.18776000E+02    7.35006000E-02 
S    1    1.000000
   6.36916000E+01    2.48937000E-01 
S    1    1.000000
   1.88282000E+01    6.02460000E-01 
S    1    1.000000
   2.72023000E+00    2.56202000E-01 
SP   3    1.000000
   3.06331000E+01    1.11906000E-01   3.83119000E-02 
   7.02614000E+00    9.21666000E-01   2.37403000E-01 
   2.11205000E+00   -2.56919000E-03   8.17592000E-01 
SP   1    1.000000
   6.84009000E-01    1.00000000E+00   1.00000000E+00 
SP   1    1.000000
   2.00878000E-01    1.00000000E+00   1.00000000E+00 
SP   1    1.000000
   6.39000000E-02    1.00000000E+00   1.00000000E+00 
SP   1    1.000000
   1.92469880E-02    1.00000000E+00   1.00000000E+00 
D    1    1.000000
   9.13000000E-01    1.00000000E+00 
****
N    0
S    1    1.000000
   6.29348000E+03    1.96979000E-03 
S    1    1.000000
   9.49044000E+02    1.49613000E-02 
S    1    1.000000
   2.18776000E+02    7.35006000E-02 
S    1    1.000000
   6.36916000E+01    2.48937000E-01 
S    1    1.000000
   1.88282000E+01    6.02460000E-01 
S    1    1.000000
   2.72023000E+00    2.56202000E-01 
SP   3    1.000000
   3.06331000E+01    1.11906000E-01   3.83119000E-02 
   7.02614000E+00    9.21666000E-01   2.37403000E-01 
   2.11205000E+00   -2.56919000E-03   8.17592000E-01 
SP   1    1.000000
   6.84009000E-01    1.00000000E+00   1.00000000E+00 
SP   1    1.000000
   2.00878000E-01    1.00000000E+00   1.00000000E+00 
SP   1    1.000000
   6.39000000E-02    1.00000000E+00   1.00000000E+00 
SP   1    1.000000
   1.92469880E-02    1.00000000E+00   1.00000000E+00 
D    1    1.000000
   9.13000000E-01    1.00000000E+00 
****
C    0
S    1    1.000000
   4.56324000E+03    1.96665000E-03 
S    1    1.000000
   6.82024000E+02    1.52306000E-02 
S    1    1.000000
   1.54973000E+02    7.61269000E-02 
S    1    1.000000
   4.44553000E+01    2.60801000E-01 
S    1    1.000000
   1.30290000E+01    6.16462000E-01 
S    1    1.000000
   1.82773000E+00    2.21006000E-01 
SP   3    1.000000
   2.09642000E+01    1.14660000E-01   4.02487000E-02 
   4.80331000E+00    9.19999000E-01   2.37594000E-01 
   1.45933000E+00   -3.03068000E-03   8.15854000E-01 
SP   1    1.000000
   4.83456000E-01    1.00000000E+00   1.00000000E+00 
SP   1    1.000000
   1.45585000E-01    1.00000000E+00   1.00000000E+00 
SP   1    1.000000
   4.38000000E-02    1.00000000E+00   1.00000000E+00 
SP   1    1.000000
   1.31927711E-02    1.00000000E+00   1.00000000E+00 
D    1    1.000000
   6.26000000E-01    1.00000000E+00 
****
H    0
S    3    1.000000
   3.38650000E+01    2.54938000E-02 
   5.09479000E+00    1.90373000E-01 
   1.15879000E+00    8.52161000E-01 
S    1    1.000000
   3.25840000E-01    1.00000000E+00 
S    1    1.000000
   1.02741000E-01    1.00000000E+00 
S    1    1.000000
   3.60000000E-02    1.00000000E+00 
P    1    1.000000
   7.50000000E-01    1.00000000E+00 
****
$end
-----------------------------------------------------------------------
 There are 116 shells and 276 basis functions
 WARNING: the default MEM_TOTAL is adjusted according to given MEM_STATIC!
 Total memory of 40192 MB is distributed as follows: 
   MEM_STATIC is set to 192 MB
   QALLOC/CCMAN JOB total memory use is  40000 MB
 Warning: actual memory use might exceed 40192 MB

 Total QAlloc Memory Limit  40192 MB
 Mega-Array Size       188 MB
 MEM_STATIC part       192 MB

                       Distance Matrix (Angstroms)
             C (  1)   H (  2)   H (  3)   H (  4)   C (  5)   O (  6)
   H (  2)  2.078256
   H (  3)  1.079812  2.359703
   H (  4)  3.690667  4.028445  4.766843
   C (  5)  2.428535  2.028674  3.361535  2.029375
   O (  6)  3.541017  2.477987  4.364435  2.496718  1.214793
   C (  7)  2.423643  3.802677  3.426309  2.058244  2.508132  3.612537
   O (  8)  3.565452  5.017873  4.497886  2.470136  3.583415  4.572021
   N (  9)  2.679859  3.204487  3.756392  1.010813  1.379660  2.294292
   N ( 10)  1.370076  1.006193  2.077895  3.210986  1.385201  2.287190
   C ( 11)  1.348016  3.287105  2.132498  3.300967  2.851092  4.065813
   H ( 12)  2.119492  4.187728  2.490969  4.207164  3.927233  5.141931
             C (  7)   O (  8)   N (  9)   N ( 10)   C ( 11)
   O (  8)  1.218322
   N (  9)  1.403352  2.278445
   N ( 10)  2.796673  4.012523  2.301756
   C ( 11)  1.453384  2.384672  2.386333  2.377083
   H ( 12)  2.184870  2.689849  3.370872  3.357728  1.076148

 A cutoff of  1.0D-14 yielded   5442 shell pairs
 There are     35779 function pairs (     37954 Cartesian)
 Smallest overlap matrix eigenvalue = 2.79E-07
 Linear dependence detected in AO basis
 Tighter screening thresholds may be required for diffuse basis sets
 Use S2THRESH > 14 and THRESH = 14 in case of SCF convergence issues
 Number of orthogonalized atomic orbitals = 274
 Maximum deviation from orthogonality = 1.662E-10

 Scale SEOQF with 1.000000e-01/1.000000e-01/1.000000e-01

 Standard Electronic Orientation quadrupole field applied
 Nucleus-field energy     =     0.0000000098 hartrees
 Guess MOs from core Hamiltonian diagonalization

 -----------------------------------------------------------------------
  General SCF calculation program by
  Eric Jon Sundstrom, Paul Horn, Yuezhi Mao, Dmitri Zuev, Alec White,
  David Stuck, Shaama M.S., Shane Yost, Joonho Lee, David Small,
  Daniel Levine, Susi Lehtola, Hugh Burton, Evgeny Epifanovsky
 -----------------------------------------------------------------------
 Hartree-Fock
 using 4 threads for integral computing
 -------------------------------------------------------
 OpenMP Integral computing Module                
 Release: version 2.0, May 2017, Q-Chem Inc. Pleasanton 
 -------------------------------------------------------
 A restricted SCF calculation will be
 performed using DIIS
 SCF converges when DIIS error is below 1.0e-08
 ---------------------------------------
  Cycle       Energy         DIIS error
 ---------------------------------------
    1    -317.6975975837      1.18e-01  
    2    -296.6539414777      6.20e-02  
    3    -298.4325676690      7.94e-02  
    4    -386.6563648353      4.37e-02  
    5    -406.3540777406      2.27e-02  
    6    -409.8825654547      1.65e-02  
    7    -412.4527394886      2.86e-03  
    8    -412.5540542320      1.08e-03  
    9    -412.5713955530      6.06e-04  
   10    -412.5782834312      2.50e-04  
   11    -412.5798894298      1.35e-04  
   12    -412.5802387821      5.44e-05  
   13    -412.5803259988      2.02e-05  
   14    -412.5803330363      5.99e-06  
   15    -412.5803334671      1.83e-06  
   16    -412.5803335191      5.97e-07  
   17    -412.5803335244      2.14e-07  
   18    -412.5803335254      7.82e-08  
   19    -412.5803335256      1.86e-08  
   20    -412.5803335256      5.20e-09  Convergence criterion met
 ---------------------------------------
 SCF time:   CPU 168.37s  wall 45.00s 
 SCF   energy in the final basis set =     -412.5803335256
 Total energy in the final basis set =     -412.5803335256


 ------------------------------------------------------------------------------

   CCMAN2: suite of methods based on coupled cluster
           and equation of motion theories.

   Components:
   * libvmm-1.3-trunk
     by Evgeny Epifanovsky, Ilya Kaliman.
   * libtensor-2.5-trunk
     by Evgeny Epifanovsky, Michael Wormit, Dmitry Zuev, Sam Manzer, 
        Ilya Kaliman.
   * libcc-2.5-trunk
     by Evgeny Epifanovsky, Arik Landau, Tomasz Kus, Kirill Khistyaev, 
        Dmitry Zuev, Prashant Manohar, Xintian Feng, Anna Krylov, 
        Matthew Goldey, Alec White, Thomas Jagau, Kaushik Nanda, 
        Anastasia Gunina, Alexander Kunitsa, Joonho Lee.

   CCMAN original authors:
   Anna I. Krylov, C. David Sherrill, Steven R. Gwaltney,
   Edward F. C. Byrd (2000)
   Sergey V. Levchenko, Lyudmila V. Slipchenko, Tao Wang,
   Ana-Maria C. Cristian (2003)
   Piotr A. Pieniazek, C. Melania Oana, Evgeny Epifanovsky (2007)
   Prashant Manohar (2009)

 ------------------------------------------------------------------------------


 Allocating and initializing 40000MB of RAM...
 Calculation will run on 4 cores.


 Alpha MOs, Restricted
 -- Occupied --                  
-20.550 -20.545 -15.649 -15.632 -11.427 -11.388 -11.346 -11.261
  1 A'    2 A'    3 A'    4 A'    5 A'    6 A'    7 A'    8 A'                 
 -1.442  -1.404  -1.318  -1.250  -1.093  -0.938  -0.906  -0.812
  9 A'   10 A'   11 A'   12 A'   13 A'   14 A'   15 A'   16 A'                 
 -0.770  -0.718  -0.681  -0.671  -0.657  -0.619  -0.605  -0.573
 17 A'   18 A'   19 A'    1 A"   20 A'   21 A'   22 A'    2 A"                 
 -0.528  -0.487  -0.452  -0.438  -0.371
  3 A"   23 A'   24 A'    4 A"    5 A"                                         
 -- Virtual --                   
  0.005   0.019   0.020   0.022   0.031   0.033   0.035   0.036
 25 A'   26 A'    6 A"   27 A'   28 A'   29 A'   30 A'    7 A"                 
  0.038   0.046   0.047   0.049   0.053   0.054   0.055   0.068
  8 A"   31 A'   32 A'   33 A'   34 A'    9 A"   35 A'   36 A'                 
  0.072   0.072   0.079   0.085   0.086   0.088   0.095   0.097
 10 A"   37 A'   11 A"   38 A'   12 A"   39 A'   40 A'   41 A'                 
  0.112   0.116   0.118   0.120   0.127   0.131   0.134   0.137
 13 A"   14 A"   42 A'   43 A'   44 A'   45 A'   46 A'   47 A'                 
  0.138   0.155   0.162   0.164   0.172   0.184   0.189   0.195
 48 A'   15 A"   49 A'   50 A'   16 A"   51 A'   17 A"   52 A'                 
  0.209   0.210   0.224   0.230   0.235   0.241   0.243   0.260
 53 A'   18 A"   54 A'   55 A'   56 A'   19 A"   57 A'   58 A'                 
  0.266   0.270   0.278   0.279   0.286   0.296   0.300   0.333
 59 A'   60 A'   20 A"   61 A'   62 A'   21 A"   63 A'   22 A"                 
  0.333   0.347   0.373   0.388   0.391   0.405   0.410   0.410
 64 A'   65 A'   66 A'   67 A'   68 A'   69 A'   23 A"   70 A'                 
  0.420   0.422   0.441   0.449   0.455   0.463   0.481   0.482
 24 A"   71 A'   72 A'   73 A'   74 A'   75 A'   76 A'   77 A'                 
  0.505   0.529   0.545   0.558   0.615   0.630   0.655   0.706
 78 A'   79 A'   80 A'   81 A'   82 A'   83 A'   84 A'   85 A'                 
  0.734   0.740   0.761   0.776   0.778   0.799   0.822   0.824
 86 A'   25 A"   87 A'   26 A"   88 A'   27 A"   28 A"   89 A'                 
  0.878   0.888   0.938   0.963   0.971   0.979   1.008   1.015
 90 A'   91 A'   92 A'   93 A'   94 A'   95 A'   96 A'   97 A'                 
  1.029   1.042   1.061   1.093   1.100   1.114   1.159   1.227
 98 A'   29 A"   99 A'   30 A"  100 A'  101 A'  102 A'   31 A"                 
  1.242   1.245   1.270   1.301   1.368   1.370   1.393   1.406
 32 A"  103 A'  104 A'  105 A'  106 A'   33 A"   34 A"   35 A"                 
  1.421   1.441   1.460   1.464   1.513   1.515   1.543   1.557
 36 A"  107 A'  108 A'   37 A"   38 A"  109 A'  110 A'  111 A'                 
  1.583   1.760   1.777   1.803   1.814   1.877   1.899   1.915
112 A'  113 A'  114 A'  115 A'   39 A"  116 A'   40 A"  117 A'                 
  1.929   1.952   1.980   2.013   2.014   2.067   2.124   2.143
 41 A"  118 A'  119 A'   42 A"  120 A'  121 A'  122 A'  123 A'                 
  2.186   2.223   2.236   2.283   2.299   2.340   2.358   2.532
124 A'   43 A"  125 A'  126 A'  127 A'   44 A"  128 A'  129 A'                 
  2.566   2.589   2.643   2.668   2.728   2.807   2.822   2.851
 45 A"  130 A'   46 A"  131 A'   47 A"  132 A'   48 A"  133 A'                 
  2.932   2.957   3.006   3.019   3.048   3.094   3.168   3.181
134 A'  135 A'  136 A'  137 A'  138 A'   49 A"   50 A"  139 A'                 
  3.184   3.211   3.263   3.271   3.297   3.310   3.325   3.347
 51 A"  140 A'   52 A"  141 A'  142 A'   53 A"  143 A'   54 A"                 
  3.401   3.515   3.588   3.756   3.766   3.819   3.840   3.876
144 A'  145 A'  146 A'   55 A"   56 A"  147 A'  148 A'  149 A'                 
  3.914   3.959   4.017   4.049   4.106   4.288   4.305   4.364
150 A'  151 A'  152 A'  153 A'  154 A'  155 A'   57 A"   58 A"                 
  4.411   4.485   4.605   5.012   5.158   5.288   5.441   5.553
156 A'  157 A'  158 A'  159 A'  160 A'  161 A'  162 A'  163 A'                 
  5.625   5.633   5.690   5.713   5.782   5.864   5.902   6.438
 59 A"   60 A"  164 A'  165 A'  166 A'  167 A'  168 A'  169 A'                 
  6.445   7.668   7.729   9.888   9.934  20.639  20.695  20.726
170 A'  171 A'  172 A'  173 A'  174 A'  175 A'  176 A'  177 A'                 
 20.897  30.195  30.235  40.894  40.935  80.190  80.235  80.273
178 A'  179 A'  180 A'  181 A'  182 A'  183 A'  184 A'  185 A'                 
 80.428 116.314 116.350 159.240 159.273 322.013 322.053 322.094
186 A'  187 A'  188 A'  189 A'  190 A'  191 A'  192 A'  193 A'                 
322.233 460.413 460.445 631.938 631.9651431.5641431.6041431.646
194 A'  195 A'  196 A'  197 A'  198 A'  199 A'  200 A'  201 A'                 
*******2012.8872012.9162759.3342759.3578749.7838749.8248749.866
202 A'  203 A'  204 A'  205 A'  206 A'  207 A'  208 A'  209 A'                 
***************************************
210 A'  211 A'  212 A'  213 A'  214 A'                                         

 Beta MOs, Restricted
 -- Occupied --                  
-20.550 -20.545 -15.649 -15.632 -11.427 -11.388 -11.346 -11.261
  1 A'    2 A'    3 A'    4 A'    5 A'    6 A'    7 A'    8 A'                 
 -1.442  -1.404  -1.318  -1.250  -1.093  -0.938  -0.906  -0.812
  9 A'   10 A'   11 A'   12 A'   13 A'   14 A'   15 A'   16 A'                 
 -0.770  -0.718  -0.681  -0.671  -0.657  -0.619  -0.605  -0.573
 17 A'   18 A'   19 A'    1 A"   20 A'   21 A'   22 A'    2 A"                 
 -0.528  -0.487  -0.452  -0.438  -0.371
  3 A"   23 A'   24 A'    4 A"    5 A"                                         
 -- Virtual --                   
  0.005   0.019   0.020   0.022   0.031   0.033   0.035   0.036
 25 A'   26 A'    6 A"   27 A'   28 A'   29 A'   30 A'    7 A"                 
  0.038   0.046   0.047   0.049   0.053   0.054   0.055   0.068
  8 A"   31 A'   32 A'   33 A'   34 A'    9 A"   35 A'   36 A'                 
  0.072   0.072   0.079   0.085   0.086   0.088   0.095   0.097
 10 A"   37 A'   11 A"   38 A'   12 A"   39 A'   40 A'   41 A'                 
  0.112   0.116   0.118   0.120   0.127   0.131   0.134   0.137
 13 A"   14 A"   42 A'   43 A'   44 A'   45 A'   46 A'   47 A'                 
  0.138   0.155   0.162   0.164   0.172   0.184   0.189   0.195
 48 A'   15 A"   49 A'   50 A'   16 A"   51 A'   17 A"   52 A'                 
  0.209   0.210   0.224   0.230   0.235   0.241   0.243   0.260
 53 A'   18 A"   54 A'   55 A'   56 A'   19 A"   57 A'   58 A'                 
  0.266   0.270   0.278   0.279   0.286   0.296   0.300   0.333
 59 A'   60 A'   20 A"   61 A'   62 A'   21 A"   63 A'   22 A"                 
  0.333   0.347   0.373   0.388   0.391   0.405   0.410   0.410
 64 A'   65 A'   66 A'   67 A'   68 A'   69 A'   23 A"   70 A'                 
  0.420   0.422   0.441   0.449   0.455   0.463   0.481   0.482
 24 A"   71 A'   72 A'   73 A'   74 A'   75 A'   76 A'   77 A'                 
  0.505   0.529   0.545   0.558   0.615   0.630   0.655   0.706
 78 A'   79 A'   80 A'   81 A'   82 A'   83 A'   84 A'   85 A'                 
  0.734   0.740   0.761   0.776   0.778   0.799   0.822   0.824
 86 A'   25 A"   87 A'   26 A"   88 A'   27 A"   28 A"   89 A'                 
  0.878   0.888   0.938   0.963   0.971   0.979   1.008   1.015
 90 A'   91 A'   92 A'   93 A'   94 A'   95 A'   96 A'   97 A'                 
  1.029   1.042   1.061   1.093   1.100   1.114   1.159   1.227
 98 A'   29 A"   99 A'   30 A"  100 A'  101 A'  102 A'   31 A"                 
  1.242   1.245   1.270   1.301   1.368   1.370   1.393   1.406
 32 A"  103 A'  104 A'  105 A'  106 A'   33 A"   34 A"   35 A"                 
  1.421   1.441   1.460   1.464   1.513   1.515   1.543   1.557
 36 A"  107 A'  108 A'   37 A"   38 A"  109 A'  110 A'  111 A'                 
  1.583   1.760   1.777   1.803   1.814   1.877   1.899   1.915
112 A'  113 A'  114 A'  115 A'   39 A"  116 A'   40 A"  117 A'                 
  1.929   1.952   1.980   2.013   2.014   2.067   2.124   2.143
 41 A"  118 A'  119 A'   42 A"  120 A'  121 A'  122 A'  123 A'                 
  2.186   2.223   2.236   2.283   2.299   2.340   2.358   2.532
124 A'   43 A"  125 A'  126 A'  127 A'   44 A"  128 A'  129 A'                 
  2.566   2.589   2.643   2.668   2.728   2.807   2.822   2.851
 45 A"  130 A'   46 A"  131 A'   47 A"  132 A'   48 A"  133 A'                 
  2.932   2.957   3.006   3.019   3.048   3.094   3.168   3.181
134 A'  135 A'  136 A'  137 A'  138 A'   49 A"   50 A"  139 A'                 
  3.184   3.211   3.263   3.271   3.297   3.310   3.325   3.347
 51 A"  140 A'   52 A"  141 A'  142 A'   53 A"  143 A'   54 A"                 
  3.401   3.515   3.588   3.756   3.766   3.819   3.840   3.876
144 A'  145 A'  146 A'   55 A"   56 A"  147 A'  148 A'  149 A'                 
  3.914   3.959   4.017   4.049   4.106   4.288   4.305   4.364
150 A'  151 A'  152 A'  153 A'  154 A'  155 A'   57 A"   58 A"                 
  4.411   4.485   4.605   5.012   5.158   5.288   5.441   5.553
156 A'  157 A'  158 A'  159 A'  160 A'  161 A'  162 A'  163 A'                 
  5.625   5.633   5.690   5.713   5.782   5.864   5.902   6.438
 59 A"   60 A"  164 A'  165 A'  166 A'  167 A'  168 A'  169 A'                 
  6.445   7.668   7.729   9.888   9.934  20.639  20.695  20.726
170 A'  171 A'  172 A'  173 A'  174 A'  175 A'  176 A'  177 A'                 
 20.897  30.195  30.235  40.894  40.935  80.190  80.235  80.273
178 A'  179 A'  180 A'  181 A'  182 A'  183 A'  184 A'  185 A'                 
 80.428 116.314 116.350 159.240 159.273 322.013 322.053 322.094
186 A'  187 A'  188 A'  189 A'  190 A'  191 A'  192 A'  193 A'                 
322.233 460.413 460.445 631.938 631.9651431.5641431.6041431.646
194 A'  195 A'  196 A'  197 A'  198 A'  199 A'  200 A'  201 A'                 
*******2012.8872012.9162759.3342759.3578749.7838749.8248749.866
202 A'  203 A'  204 A'  205 A'  206 A'  207 A'  208 A'  209 A'                 
***************************************
210 A'  211 A'  212 A'  213 A'  214 A'                                         

 Occupation and symmetry of molecular orbitals

 Point group: Cs (2 irreducible representations).

                           A'   A"    All 
 ------------------------------------------
 All molecular orbitals:
  - Alpha                  214  60    274 
  - Beta                   214  60    274 
 ------------------------------------------
 Alpha orbitals:
  - Frozen occupied        8    0     8   
  - Active occupied        16   5     21  
  - Active virtual         190  55    245 
  - Frozen virtual         0    0     0   
 ------------------------------------------
 Beta orbitals:
  - Frozen occupied        8    0     8   
  - Active occupied        16   5     21  
  - Active virtual         190  55    245 
  - Frozen virtual         0    0     0   
 ------------------------------------------

 Import integrals:   CPU 0.00 s  wall 0.00 s

 Import integrals:   CPU 441.87 s  wall 134.76 s

 MP2 amplitudes:   CPU 1.26 s  wall 0.93 s

Running a double precision version
           CCSD T amplitudes will be solved using DIIS.

           Start     Size      MaxIter   EConv     TConv     
           3         7         100       1.00e-06  1.00e-04  
 ------------------------------------------------------------------------------
           Energy (a.u.)   Ediff      Tdiff       Comment
 ------------------------------------------------------------------------------
          -413.86553529                           
     1    -413.83443829   3.11e-02   1.01e+00     
     2    -413.87911309   4.47e-02   1.36e-01     
     3    -413.87525068   3.86e-03   5.70e-02     
     4    -413.87988230   4.63e-03   2.38e-02     Switched to DIIS steps.
     5    -413.88148900   1.61e-03   1.34e-02     
     6    -413.88163424   1.45e-04   3.40e-03     
     7    -413.88163669   2.45e-06   1.37e-03     
     8    -413.88163269   4.00e-06   4.30e-04     
     9    -413.88163511   2.42e-06   1.74e-04     
    10    -413.88163494   1.69e-07   5.41e-05     
 ------------------------------------------------------------------------------
          -413.88163494                           CCSD T converged.

End of double precision
 SCF energy                 = -412.58033353
 MP2 energy                 = -413.86553529
 CCSD correlation energy    =   -1.30130142
 CCSD total energy          = -413.88163494

 CCSD  T1^2 = 0.0263  T2^2 = 0.4118  Leading amplitudes:

 Amplitude    Orbitals with energies
 -0.0373       2 (A") A                  ->    15 (A") A                  
              -0.5733                          0.1553                     
 -0.0373       2 (A") B                  ->    15 (A") B                  
              -0.5733                          0.1553                     
  0.0287       2 (A") A                  ->    11 (A") A                  
              -0.5733                          0.0787                     
  0.0287       2 (A") B                  ->    11 (A") B                  
              -0.5733                          0.0787                     

 Amplitude    Orbitals with energies
 -0.0403       5 (A") A      5 (A") B    ->    11 (A") A     11 (A") B    
              -0.3712       -0.3712            0.0787        0.0787       
  0.0403       5 (A") A      5 (A") B    ->    11 (A") B     11 (A") A    
              -0.3712       -0.3712            0.0787        0.0787       
  0.0403       5 (A") B      5 (A") A    ->    11 (A") A     11 (A") B    
              -0.3712       -0.3712            0.0787        0.0787       
 -0.0403       5 (A") B      5 (A") A    ->    11 (A") B     11 (A") A    
              -0.3712       -0.3712            0.0787        0.0787       

 Computing CCSD intermediates for later calculations in double precision
 Finished.

Running a double precision version
           CCSD Lambda amplitudes will be solved using DIIS.
           Start     Size      MaxIter   EConv     LConv     
           3         7         100       1.00e-06  1.00e-04  
 ------------------------------------------------------------------------------
            Enorm      Ldiff       Comment
 ------------------------------------------------------------------------------
     1     7.12e-02   4.18e-02     
     2     2.64e-02   9.08e-03     
     3     1.19e-02   5.27e-04     
     4     4.98e-03   1.65e-03     Switched to DIIS steps.
     5     1.43e-03   9.37e-04     
     6     6.35e-04   1.99e-04     
     7     2.22e-04   5.47e-05     
     8     9.56e-05   9.95e-06     
     9     3.92e-05   3.53e-06     
    10     1.88e-05   1.33e-06     
    11     8.45e-06   1.82e-07     
    12     3.27e-06   1.75e-07     
    13     1.35e-06   2.53e-08     
    14     5.76e-07   7.97e-09     
 ------------------------------------------------------------------------------
                                   CCSD Lambda converged.

 CCSD calculation:   CPU 2789.24 s  wall 771.31 s

        Solving for EOMEE-CCSD A' singlet states.

Running a double precision version
        EOMEE-CCSD/MP2 right amplitudes will be solved using Davidson.
        Amplitudes will be solved using standard  algorithm.
     Hard-coded thresholds: 
     LinDepThresh=1.00e-15  NormThresh=1.00e-06  ReorthogonThresh=1.00e-02

      Roots     MaxVec    MaxIter   Precond   Conv      Shift    
      3         120       60        1         1.00e-04  0.00e+00  
 ------------------------------------------------------------------------------
      Iter ConvRoots NVecs ResNorm Current eigenvalues (eV)
 ------------------------------------------------------------------------------
      0    0      3     1.39e-01   10.3113   10.9704   11.0113   
      1    0      6     4.65e-01   8.2782   8.9299   8.9564   
      2    0      9     3.81e-02   7.5251   8.2193   8.2385   
      3    0      12    3.76e-03   7.3160   8.0485   8.1013   
      4    0      15    5.28e-02   7.1501   7.7892   8.0074   
      5    0      18    1.01e-01   6.7849   7.2633   7.8105   
      6    0      21    1.34e-02   6.1679   7.1588   7.5412   
      7    0      24    7.56e-02   5.7708   7.1288   7.2096   
      8    0      27    1.51e-02   5.6872   7.0618   7.1235   
      9    0      30    1.52e-03   5.6702   7.0180   7.1205   
      10   0      33    2.52e-03   5.6664   7.0064   7.1188   
      11   1      36    8.36e-04   5.6653*  6.9942   7.1176   
      12   1      38    3.63e-03   5.6652*  6.9712   7.1130   
      13   1      40    7.27e-03   5.6652*  6.9315   7.1018   
      14   1      42    1.36e-03   5.6651*  6.8756   7.0775   
      15   1      44    1.06e-02   5.6652*  6.8109   7.0528   
      16   1      46    9.40e-04   5.6652*  6.7593   7.0412   
      17   1      48    1.61e-03   5.6652*  6.7385   7.0348   
      18   1      50    6.05e-04   5.6652*  6.7288   7.0327   
      19   2      52    1.02e-04   5.6652*  6.7264   7.0312*  
      20   1      53    1.25e-04   5.6652*  6.7252   7.0309   
      21   3      55    4.62e-05   5.6652*  6.7247*  7.0304*  

     Davidson procedure converged

 EOMEE transition 1/A'
 Total energy = -413.67344355 a.u.  Excitation energy = 5.6652 eV.
 R0^2 = 0.0002  R1^2 = 0.9103  R2^2 = 0.0897  Res^2 = 3.41e-05
 Conv-d = yes

 Amplitude    Transitions between orbitals
 -0.5058       5 (A") A                  ->    11 (A") A                  
 -0.5058       5 (A") B                  ->    11 (A") B                  
  0.2593       5 (A") A                  ->    12 (A") A                  
  0.2593       5 (A") B                  ->    12 (A") B                  
  0.2372       5 (A") A                  ->    10 (A") A                  
  0.2372       5 (A") B                  ->    10 (A") B                  

              Summary of significant orbitals:

               Number  Type             Irrep      Energy
               29      Occ  Alpha       5 (A")     -0.3712
               29      Occ  Beta        5 (A")     -0.3712
               46      Vir  Alpha      10 (A")      0.0716
               48      Vir  Alpha      11 (A")      0.0787
               50      Vir  Alpha      12 (A")      0.0859
               46      Vir  Beta       10 (A")      0.0716
               48      Vir  Beta       11 (A")      0.0787
               50      Vir  Beta       12 (A")      0.0859


 EOMEE transition 2/A'
 Total energy = -413.63450615 a.u.  Excitation energy = 6.7247 eV.
 R0^2 = 0.0000  R1^2 = 0.8880  R2^2 = 0.1120  Res^2 = 7.97e-06
 Conv-d = yes

 Amplitude    Transitions between orbitals
 -0.4952       4 (A") A                  ->    11 (A") A                  
 -0.4952       4 (A") B                  ->    11 (A") B                  
  0.2616       4 (A") A                  ->    10 (A") A                  
  0.2616       4 (A") B                  ->    10 (A") B                  
  0.2125       4 (A") A                  ->    12 (A") A                  
  0.2125       4 (A") B                  ->    12 (A") B                  
  0.1198       4 (A") A                  ->    16 (A") A                  
  0.1198       4 (A") B                  ->    16 (A") B                  

              Summary of significant orbitals:

               Number  Type             Irrep      Energy
               28      Occ  Alpha       4 (A")     -0.4384
               28      Occ  Beta        4 (A")     -0.4384
               46      Vir  Alpha      10 (A")      0.0716
               48      Vir  Alpha      11 (A")      0.0787
               50      Vir  Alpha      12 (A")      0.0859
               66      Vir  Alpha      16 (A")      0.1722
               46      Vir  Beta       10 (A")      0.0716
               48      Vir  Beta       11 (A")      0.0787
               50      Vir  Beta       12 (A")      0.0859
               66      Vir  Beta       16 (A")      0.1722


 EOMEE transition 3/A'
 Total energy = -413.62327335 a.u.  Excitation energy = 7.0304 eV.
 R0^2 = 0.0002  R1^2 = 0.9042  R2^2 = 0.0958  Res^2 = 9.64e-05
 Conv-d = yes

 Amplitude    Transitions between orbitals
 -0.4737       5 (A") A                  ->    15 (A") A                  
 -0.4737       5 (A") B                  ->    15 (A") B                  
  0.2896       5 (A") A                  ->    14 (A") A                  
  0.2896       5 (A") B                  ->    14 (A") B                  
 -0.1543       5 (A") A                  ->    8 (A") A                   
 -0.1543       5 (A") B                  ->    8 (A") B                   
 -0.1294       5 (A") A                  ->    16 (A") A                  
 -0.1294       5 (A") B                  ->    16 (A") B                  
  0.1097       5 (A") A                  ->    18 (A") A                  
  0.1097       5 (A") B                  ->    18 (A") B                  
 -0.1002       4 (A") A                  ->    11 (A") A                  
 -0.1002       4 (A") B                  ->    11 (A") B                  

              Summary of significant orbitals:

               Number  Type             Irrep      Energy
               28      Occ  Alpha       4 (A")     -0.4384
               29      Occ  Alpha       5 (A")     -0.3712
               28      Occ  Beta        4 (A")     -0.4384
               29      Occ  Beta        5 (A")     -0.3712
               38      Vir  Alpha       8 (A")      0.0383
               48      Vir  Alpha      11 (A")      0.0787
               55      Vir  Alpha      14 (A")      0.1156
               63      Vir  Alpha      15 (A")      0.1553
               66      Vir  Alpha      16 (A")      0.1722
               71      Vir  Alpha      18 (A")      0.2103
               38      Vir  Beta        8 (A")      0.0383
               48      Vir  Beta       11 (A")      0.0787
               55      Vir  Beta       14 (A")      0.1156
               63      Vir  Beta       15 (A")      0.1553
               66      Vir  Beta       16 (A")      0.1722
               71      Vir  Beta       18 (A")      0.2103


Running a double precision version
      EOM-CCSD/MP2 left amplitudes will be solved using Davidson.
        Amplitudes will be solved using MOM  algorithm.
     Hard-coded thresholds: 
     LinDepThresh=1.00e-15  NormThresh=1.00e-06  ReorthogonThresh=1.00e-02

      Roots     MaxVec    MaxIter   Precond   Conv      Shift    
      3         120       60        1         1.00e-04  0.00e+00  
 ------------------------------------------------------------------------------
      Iter ConvRoots NVecs ResNorm Current eigenvalues (eV)
 ------------------------------------------------------------------------------
      0    0      3     1.28e-02   5.6652   6.7247   7.0304   
      1    0      6     5.33e+00   5.6652   6.7247   7.0304   
      2    0      9     2.23e-02   5.6650   6.7247   7.0303   
      3    0      12    3.89e-03   5.6649   6.7247   7.0303   
      4    1      15    7.13e-04   5.6648   6.7247   7.0303*  
      5    3      17    3.78e-05   5.6648*  6.7247*  7.0303*  

     Davidson procedure converged

        Solving for EOMEE-CCSD A" singlet states.

Running a double precision version
        EOMEE-CCSD/MP2 right amplitudes will be solved using Davidson.
        Amplitudes will be solved using standard  algorithm.
     Hard-coded thresholds: 
     LinDepThresh=1.00e-15  NormThresh=1.00e-06  ReorthogonThresh=1.00e-02

      Roots     MaxVec    MaxIter   Precond   Conv      Shift    
      3         120       60        1         1.00e-04  0.00e+00  
 ------------------------------------------------------------------------------
      Iter ConvRoots NVecs ResNorm Current eigenvalues (eV)
 ------------------------------------------------------------------------------
      0    0      3     1.42e-01   9.7548   10.4574   10.6406   
      1    0      6     2.87e+00   7.6979   8.4073   8.5755   
      2    0      9     2.72e-01   6.7623   7.5936   7.7399   
      3    0      12    1.16e-02   6.3591   7.3216   7.4497   
      4    0      15    2.33e-01   6.1312   7.1163   7.1884   
      5    0      18    6.01e-02   6.0506   7.0104   7.0293   
      6    0      21    5.77e-03   6.0298   6.9813   6.9857   
      7    0      24    1.73e-02   6.0271   6.9679   6.9757   
      8    0      27    4.72e-03   6.0265   6.9591   6.9728   
      9    0      30    1.18e-03   6.0263   6.9524   6.9708   
      10   1      33    2.52e-03   6.0262*  6.9494   6.9685   
      11   1      35    6.07e-04   6.0262*  6.9485   6.9677   
      12   1      37    9.68e-03   6.0262*  6.9396   6.9639   
      13   0      39    5.91e-01   6.0261   6.2251   6.9509   
      14   2      42    1.43e-02   5.4009   6.0263*  6.9490*  
      15   1      43    3.25e-02   5.2087   6.0262*  6.9488   
      16   2      45    2.96e-03   5.1735   6.0262*  6.9486*  
      17   2      46    1.16e-03   5.1628   6.0262*  6.9486*  
      18   1      47    1.73e-03   5.1572   6.0262*  6.9485   
      19   2      49    2.16e-04   5.1533   6.0262*  6.9482*  
      20   1      50    3.09e-03   5.1516   6.0262*  6.9468   
      21   1      52    5.25e-02   5.1511   6.0262*  6.7809   
      22   2      54    7.69e-03   5.1508*  6.0262*  6.6384   
      23   2      55    1.72e-02   5.1507*  6.0262*  6.5748   
      24   2      56    1.60e-03   5.1506*  6.0262*  6.5461   
      25   2      57    4.28e-03   5.1507*  6.0262*  6.5291   
      26   2      58    1.03e-03   5.1507*  6.0262*  6.5202   
      27   2      59    3.49e-04   5.1507*  6.0262*  6.5155   
      28   2      60    4.64e-04   5.1507*  6.0262*  6.5146   
      29   2      61    3.72e-05   5.1507*  6.0262*  6.5132   
      30   2      62    8.75e-05   5.1507*  6.0262*  6.5134   
      31   3      63    1.08e-05   5.1507*  6.0262*  6.5131*  

     Davidson procedure converged

 EOMEE transition 1/A"
 Total energy = -413.69235089 a.u.  Excitation energy = 5.1507 eV.
 R0^2 = 0.0000  R1^2 = 0.9087  R2^2 = 0.0913  Res^2 = 2.26e-06
 Conv-d = yes

 Amplitude    Transitions between orbitals
 -0.4565       24 (A') A                 ->    11 (A") A                  
 -0.4565       24 (A') B                 ->    11 (A") B                  
  0.2215       24 (A') A                 ->    12 (A") A                  
  0.2215       24 (A') B                 ->    12 (A") B                  
  0.2148       24 (A') A                 ->    10 (A") A                  
  0.2148       24 (A') B                 ->    10 (A") B                  
  0.1906       24 (A') A                 ->    15 (A") A                  
  0.1906       24 (A') B                 ->    15 (A") B                  
  0.1573       24 (A') A                 ->    16 (A") A                  
  0.1573       24 (A') B                 ->    16 (A") B                  
  0.1304       23 (A') A                 ->    11 (A") A                  
  0.1304       23 (A') B                 ->    11 (A") B                  
  0.1138       24 (A') A                 ->    21 (A") A                  
  0.1138       24 (A') B                 ->    21 (A") B                  
 -0.1100       24 (A') A                 ->    14 (A") A                  
 -0.1100       24 (A') B                 ->    14 (A") B                  

              Summary of significant orbitals:

               Number  Type             Irrep      Energy
               26      Occ  Alpha      23 (A')     -0.4866
               27      Occ  Alpha      24 (A')     -0.4518
               26      Occ  Beta       23 (A')     -0.4866
               27      Occ  Beta       24 (A')     -0.4518
               46      Vir  Alpha      10 (A")      0.0716
               48      Vir  Alpha      11 (A")      0.0787
               50      Vir  Alpha      12 (A")      0.0859
               55      Vir  Alpha      14 (A")      0.1156
               63      Vir  Alpha      15 (A")      0.1553
               66      Vir  Alpha      16 (A")      0.1722
               83      Vir  Alpha      21 (A")      0.2958
               46      Vir  Beta       10 (A")      0.0716
               48      Vir  Beta       11 (A")      0.0787
               50      Vir  Beta       12 (A")      0.0859
               55      Vir  Beta       14 (A")      0.1156
               63      Vir  Beta       15 (A")      0.1553
               66      Vir  Beta       16 (A")      0.1722
               83      Vir  Beta       21 (A")      0.2958


 EOMEE transition 2/A"
 Total energy = -413.66017514 a.u.  Excitation energy = 6.0262 eV.
 R0^2 = 0.0000  R1^2 = 0.9277  R2^2 = 0.0723  Res^2 = 8.62e-07
 Conv-d = yes

 Amplitude    Transitions between orbitals
  0.4707       5 (A") A                  ->    25 (A') A                  
  0.4707       5 (A") B                  ->    25 (A') B                  
  0.2925       5 (A") A                  ->    32 (A') A                  
  0.2925       5 (A") B                  ->    32 (A') B                  
  0.1473       5 (A") A                  ->    30 (A') A                  
  0.1473       5 (A") B                  ->    30 (A') B                  
  0.1377       5 (A") A                  ->    33 (A') A                  
  0.1377       5 (A") B                  ->    33 (A') B                  
  0.1311       5 (A") A                  ->    39 (A') A                  
  0.1311       5 (A") B                  ->    39 (A') B                  
  0.1166       5 (A") A                  ->    45 (A') A                  
  0.1166       5 (A") B                  ->    45 (A') B                  

              Summary of significant orbitals:

               Number  Type             Irrep      Energy
               29      Occ  Alpha       5 (A")     -0.3712
               29      Occ  Beta        5 (A")     -0.3712
               30      Vir  Alpha      25 (A')      0.0049
               36      Vir  Alpha      30 (A')      0.0353
               40      Vir  Alpha      32 (A')      0.0472
               41      Vir  Alpha      33 (A')      0.0489
               51      Vir  Alpha      39 (A')      0.0882
               59      Vir  Alpha      45 (A')      0.1306
               30      Vir  Beta       25 (A')      0.0049
               36      Vir  Beta       30 (A')      0.0353
               40      Vir  Beta       32 (A')      0.0472
               41      Vir  Beta       33 (A')      0.0489
               51      Vir  Beta       39 (A')      0.0882
               59      Vir  Beta       45 (A')      0.1306


 EOMEE transition 3/A"
 Total energy = -413.64228406 a.u.  Excitation energy = 6.5131 eV.
 R0^2 = 0.0000  R1^2 = 0.9172  R2^2 = 0.0828  Res^2 = 2.94e-05
 Conv-d = yes

 Amplitude    Transitions between orbitals
 -0.3463       23 (A') A                 ->    15 (A") A                  
 -0.3463       23 (A') B                 ->    15 (A") B                  
 -0.3206       24 (A') A                 ->    15 (A") A                  
 -0.3206       24 (A') B                 ->    15 (A") B                  
  0.1807       23 (A') A                 ->    18 (A") A                  
  0.1807       23 (A') B                 ->    18 (A") B                  
 -0.1701       23 (A') A                 ->    11 (A") A                  
 -0.1701       23 (A') B                 ->    11 (A") B                  
  0.1455       24 (A') A                 ->    14 (A") A                  
  0.1455       24 (A') B                 ->    14 (A") B                  
  0.1438       23 (A') A                 ->    14 (A") A                  
  0.1438       23 (A') B                 ->    14 (A") B                  
  0.1286       24 (A') A                 ->    18 (A") A                  
  0.1286       24 (A') B                 ->    18 (A") B                  
  0.1246       23 (A') A                 ->    10 (A") A                  
  0.1246       23 (A') B                 ->    10 (A") B                  
 -0.1208       24 (A') A                 ->    11 (A") A                  
 -0.1208       24 (A') B                 ->    11 (A") B                  
  0.1147       23 (A') A                 ->    21 (A") A                  
  0.1147       23 (A') B                 ->    21 (A") B                  

              Summary of significant orbitals:

               Number  Type             Irrep      Energy
               26      Occ  Alpha      23 (A')     -0.4866
               27      Occ  Alpha      24 (A')     -0.4518
               26      Occ  Beta       23 (A')     -0.4866
               27      Occ  Beta       24 (A')     -0.4518
               46      Vir  Alpha      10 (A")      0.0716
               48      Vir  Alpha      11 (A")      0.0787
               55      Vir  Alpha      14 (A")      0.1156
               63      Vir  Alpha      15 (A")      0.1553
               71      Vir  Alpha      18 (A")      0.2103
               83      Vir  Alpha      21 (A")      0.2958
               46      Vir  Beta       10 (A")      0.0716
               48      Vir  Beta       11 (A")      0.0787
               55      Vir  Beta       14 (A")      0.1156
               63      Vir  Beta       15 (A")      0.1553
               71      Vir  Beta       18 (A")      0.2103
               83      Vir  Beta       21 (A")      0.2958


Running a double precision version
      EOM-CCSD/MP2 left amplitudes will be solved using Davidson.
        Amplitudes will be solved using MOM  algorithm.
     Hard-coded thresholds: 
     LinDepThresh=1.00e-15  NormThresh=1.00e-06  ReorthogonThresh=1.00e-02

      Roots     MaxVec    MaxIter   Precond   Conv      Shift    
      3         120       60        1         1.00e-04  0.00e+00  
 ------------------------------------------------------------------------------
      Iter ConvRoots NVecs ResNorm Current eigenvalues (eV)
 ------------------------------------------------------------------------------
      0    0      3     1.24e-02   5.1507   6.0262   6.5131   
      1    0      6     1.40e+01   5.1507   6.0262   6.5130   
      2    0      9     3.63e-02   5.1507   6.0262   6.5131   
      3    0      12    8.98e-03   5.1507   6.0262   6.5130   
      4    1      15    6.25e-04   5.1507   6.0262   6.5130*  
      5    3      17    5.00e-05   5.1507*  6.0262*  6.5130*  

     Davidson procedure converged

 EOMEE-CCSD calculation:   CPU 10672.00 s  wall 3279.25 s

        Solving for CVS-EOMIP-CCSD A' transitions.

Warning! Not enough singles to form guess subspace. Doubles guess vectors will be generated.
In case of poor EOM convergence, reduce requested IP_STATES.

Running a double precision version
      CVS-EOMIP-CCSD/MP2 right amplitudes will be solved using Davidson.
        Amplitudes will be solved using shifted  algorithm.
     Hard-coded thresholds: 
     LinDepThresh=1.00e-15  NormThresh=1.00e-06  ReorthogonThresh=1.00e-02

      Roots     MaxVec    MaxIter   Precond   Conv      Shift    
      12        120       60        1         1.00e-04  1.05e+01  
 ------------------------------------------------------------------------------
      Iter ConvRoots NVecs ResNorm Current eigenvalues (eV)
 ------------------------------------------------------------------------------
      0    0      12    8.93e-01   306.0236   307.9971   309.1602   310.1356   321.5062   321.5095   321.5097   322.1492   425.0428   425.5139   559.4073   559.4778   
      1    0      24    8.96e-01   303.1858   305.1975   306.3564   307.3221   319.2205   319.4380   319.5842   321.2743   323.1131   323.2307   323.2940   325.1857   
      2    0      36    6.36e-02   292.0672   294.2197   295.7824   296.8407   312.0980   313.3032   314.4437   319.3469   321.4159   321.5173   321.7948   321.8876   
      3    0      48    3.33e-02   291.6743   293.8204   295.4172   296.4817   310.0930   310.3605   311.8138   316.2554   318.1699   318.7939   319.5663   320.0890   
      4    0      60    9.48e-03   291.6567   293.7960   295.3937   296.4612   309.7986   309.9608   311.4444   314.0960   314.6825   316.6557   318.7816   319.2362   
      5    4      72    5.50e-02   291.6529*  293.7900*  295.3887*  296.4569*  309.7610   309.9316   311.3932   313.5531   313.7712   316.1287   317.0204   317.1550   
      6    4      80    2.53e-02   291.6528*  293.7894*  295.3887*  296.4569*  309.7244   309.9196   310.9908   311.3428   312.6311   313.1633   313.3550   313.6575   
      7    4      88    1.08e-02   291.6528*  293.7897*  295.3887*  296.4569*  309.1023   309.6469   309.9062   310.5440   310.9687   311.4585   312.1191   313.2148   
      8    4      96    9.20e-03   291.6529*  293.7897*  295.3887*  296.4569*  308.5137   309.1892   309.6501   309.8878   310.0830   310.3372   311.3782   312.2712   
      9    4      104   6.58e-03   291.6529*  293.7898*  295.3887*  296.4569*  308.2961   308.6489   308.9178   309.8197   309.8320   310.0520   310.7575   311.4108   
      10   4      112   2.56e-03   291.6528*  293.7897*  295.3887*  296.4569*  308.2247   308.3591   308.7404   309.2263   309.7711   309.8055   309.9924   311.3324   
      11   5      120   2.07e-03   291.6529*  293.7897*  295.3887*  296.4569*  308.1780   308.1901   308.6804   308.7170   309.7194   309.7999*  309.9728   310.9205   
      12   6      19    5.64e-04   291.6528*  293.7897*  295.3886*  296.4569*  308.1128   308.1769   308.5891   308.6934   309.7065   309.7987*  309.9683*  310.5763   
      13   6      25    6.01e-03   291.6528*  293.7897*  295.3886*  296.4569*  308.0128   308.1709*  308.5514   308.6863   309.6983   309.7979*  309.9644   310.1897   
      14   8      31    2.19e-03   291.6528*  293.7897*  295.3884*  296.4569*  307.4340   308.1689*  308.3469   308.5348   308.6867   309.6972*  309.7976*  309.9654*  
      15   9      35    1.74e-03   291.6530*  293.7897*  295.3887*  296.4569*  307.2583   308.1679*  308.2760   308.5266   308.6852*  309.6966*  309.7975*  309.9653*  
      16   10     38    4.18e-04   291.6530*  293.7897*  295.3887*  296.4569*  307.1288   308.1675*  308.2454   308.5228*  308.6849*  309.6961*  309.7973*  309.9651*  
      17   10     40    1.35e-04   291.6529*  293.7897*  295.3887*  296.4569*  307.0281   308.1674*  308.2326   308.5228*  308.6846*  309.6956*  309.7970*  309.9649*  
      18   7      42    1.95e-03   291.6529*  293.7897*  295.3887*  296.4569*  306.9831   308.1673*  308.2269   308.5227*  308.6844*  309.6904   309.7441   309.8011   
      19   9      47    1.47e-03   291.6529*  293.7897*  295.3885*  296.4569*  306.9525   308.1671*  308.2211   308.5223*  308.6835*  308.9583   309.6942*  309.7972*  
      20   9      50    1.01e-03   291.6529*  293.7897*  295.3884*  296.4569*  306.9368   308.1670*  308.2091   308.3549   308.5225*  308.6840*  309.6940*  309.7969*  
      21   8      53    1.28e-03   291.6529*  293.7897*  295.3884*  296.4569*  306.9307*  308.0931   308.1670*  308.2304   308.5224*  308.6838*  309.6936   309.7739   
      22   10     57    1.41e-03   291.6529*  293.7897*  295.3885*  296.4569*  306.9287*  307.9817   308.1668*  308.2251*  308.5217*  308.6838*  309.2224   309.6935*  
      23   8      59    1.29e-03   291.6529*  293.7897*  295.3884*  296.4569*  306.9279*  307.8927   308.1667*  308.2238*  308.5207   308.6831   308.7456   309.6934*  
      24   9      63    8.27e-04   291.6529*  293.7897*  295.3884*  296.4569*  306.9275*  307.7727   308.1667*  308.2232*  308.3773   308.5237   308.6839*  309.6934*  
      25   9      66    5.30e-04   291.6529*  293.7897*  295.3884*  296.4569*  306.9273*  307.6365   308.1666*  308.2156   308.2253   308.5215*  308.6838*  309.6934*  
      26   10     69    1.45e-04   291.6529*  293.7897*  295.3884*  296.4569*  306.9271*  307.5682   308.1665*  308.1711   308.2231*  308.5211*  308.6837*  309.6933*  
      27   10     71    7.81e-05   291.6529*  293.7897*  295.3884*  296.4569*  306.9271*  307.5395   308.1537   308.1665*  308.2231*  308.5209*  308.6837*  309.6931*  
      28   10     73    4.64e-05   291.6529*  293.7897*  295.3884*  296.4569*  306.9271*  307.5248   308.1447   308.1665*  308.2230*  308.5208*  308.6837*  309.6926*  
      29   11     75    4.53e-05   291.6529*  293.7897*  295.3884*  296.4569*  306.9271*  307.5195*  308.1406*  308.1665*  308.2230*  308.5207*  308.6837*  309.6899   
      30   9      76    3.50e-04   291.6529*  293.7898*  295.3884*  296.4569*  306.9271*  307.5183   308.1390   308.1665*  308.2230*  308.5207*  308.6837*  309.6245   
      31   8      79    1.44e-02   291.6529*  293.7898*  295.3884*  296.4569*  306.9271*  307.5157   308.1359   308.1665*  308.2230*  308.5205   308.6837*  309.3857   
      32   9      83    4.69e-01   291.6529*  293.7898*  295.3884*  296.4569*  303.8936   306.9271*  307.5179   308.1394   308.1665*  308.2230*  308.5205*  308.6837*  
      33   11     86    3.27e-04   291.6529*  293.7898*  295.3884*  296.4569*  306.9270*  307.5172*  308.1372*  308.1665*  308.2230*  308.5203*  308.6837*  309.3999   
      34   11     87    1.47e-04   291.6529*  293.7898*  295.3884*  296.4569*  306.9270*  307.5171*  308.1369*  308.1665*  308.2229*  308.5203*  308.6837*  309.3080   
      35   11     88    2.99e-04   291.6529*  293.7898*  295.3884*  296.4569*  306.9270*  307.5171*  308.1368*  308.1665*  308.2229*  308.5203*  308.6837*  309.2710   
      36   9      89    4.67e-01   291.6529*  293.7898*  295.3884*  296.4569*  305.1058   306.9270*  307.5172   308.1370   308.1665*  308.2229*  308.5203*  308.6837*  
      37   11     92    5.75e-05   291.6530*  293.7898*  295.3884*  296.4569*  306.9270*  307.5169*  308.1367*  308.1665*  308.2229*  308.5203*  308.6837*  309.2657   
      38   11     93    4.07e-05   291.6530*  293.7898*  295.3884*  296.4569*  306.9270*  307.5169*  308.1367*  308.1665*  308.2229*  308.5203*  308.6837*  309.2558   
      39   11     94    1.11e-03   291.6530*  293.7898*  295.3884*  296.4569*  306.9270*  307.5169*  308.1366*  308.1665*  308.2229*  308.5202*  308.6837*  309.2410   
      40   11     95    2.87e-05   291.6530*  293.7898*  295.3884*  296.4569*  306.9270*  307.5169*  308.1367*  308.1665*  308.2229*  308.5203*  308.6837*  309.2547   
      41   11     96    2.71e-05   291.6530*  293.7898*  295.3884*  296.4569*  306.9270*  307.5169*  308.1367*  308.1665*  308.2229*  308.5203*  308.6837*  309.2515   
      42   11     97    4.37e-01   291.6530*  293.7898*  295.3884*  296.4568*  304.9387   306.9270*  307.5170*  308.1367*  308.1665*  308.2229*  308.5203*  308.6837*  
      43   12     98    1.14e-05   291.6530*  293.7898*  295.3884*  296.4569*  306.9270*  307.5169*  308.1367*  308.1665*  308.2229*  308.5203*  308.6837*  309.2512*  

     Davidson procedure converged

 EOMIP transition 1/A'
 Total energy = -403.16358516 a.u.  Excitation energy = 291.6530 eV.
 R1^2 = 0.8912  R2_CCVV^2 = 0.0018  R2_COVV^2 = 0.1079  Res^2 = 3.86e-06
 Conv-d = yes

 Amplitude    Transitions between orbitals
  0.9440       8 (A') A                  ->    infty        
  0.0023       7 (A') A                  ->    infty        
 -0.0005       6 (A') A                  ->    infty        

              Summary of significant orbitals:

               Number  Type             Irrep      Energy
               6       Occ  Alpha       6 (A')    -11.3881
               7       Occ  Alpha       7 (A')    -11.3463
               8       Occ  Alpha       8 (A')    -11.2612


 EOMIP transition 2/A'
 Total energy = -403.08505927 a.u.  Excitation energy = 293.7898 eV.
 R1^2 = 0.8871  R2_CCVV^2 = 0.0018  R2_COVV^2 = 0.1120  Res^2 = 4.89e-06
 Conv-d = yes

 Amplitude    Transitions between orbitals
 -0.9418       7 (A') A                  ->    infty        
  0.0022       8 (A') A                  ->    infty        

              Summary of significant orbitals:

               Number  Type             Irrep      Energy
               7       Occ  Alpha       7 (A')    -11.3463
               8       Occ  Alpha       8 (A')    -11.2612


 EOMIP transition 3/A'
 Total energy = -403.02631144 a.u.  Excitation energy = 295.3884 eV.
 R1^2 = 0.8926  R2_CCVV^2 = 0.0018  R2_COVV^2 = 0.1065  Res^2 = 1.18e-05
 Conv-d = yes

 Amplitude    Transitions between orbitals
  0.9448       6 (A') A                  ->    infty        
  0.0004       8 (A') A                  ->    infty        
 -0.0001       5 (A') A                  ->    infty        

              Summary of significant orbitals:

               Number  Type             Irrep      Energy
               5       Occ  Alpha       5 (A')    -11.4267
               6       Occ  Alpha       6 (A')    -11.3881
               8       Occ  Alpha       8 (A')    -11.2612


 EOMIP transition 4/A'
 Total energy = -402.98704488 a.u.  Excitation energy = 296.4569 eV.
 R1^2 = 0.8933  R2_CCVV^2 = 0.0018  R2_COVV^2 = 0.1058  Res^2 = 1.20e-05
 Conv-d = yes

 Amplitude    Transitions between orbitals
  0.9451       5 (A') A                  ->    infty        
  0.0001       6 (A') A                  ->    infty        

              Summary of significant orbitals:

               Number  Type             Irrep      Energy
               5       Occ  Alpha       5 (A')    -11.4267
               6       Occ  Alpha       6 (A')    -11.3881


 EOMIP transition 5/A'
 Total energy = -402.60227582 a.u.  Excitation energy = 306.9270 eV.
 R1^2 = 0.0000  R2_CCVV^2 = 0.0000  R2_COVV^2 = 1.0000  Res^2 = 1.58e-06
 Conv-d = yes

 Amplitude    Transitions between orbitals
 -0.4869       7 (A') A      5 (A") A    ->    11 (A") A    
  0.4864       7 (A') B      5 (A") A    ->    11 (A") B    
  0.4864       7 (A') A      5 (A") B    ->    11 (A") B    
 -0.2864       7 (A') A      5 (A") A    ->    21 (A") A    
  0.2863       7 (A') A      5 (A") B    ->    21 (A") B    
  0.2863       7 (A') B      5 (A") A    ->    21 (A") B    
  0.2785       7 (A') A      5 (A") A    ->    12 (A") A    
 -0.2783       7 (A') B      5 (A") A    ->    12 (A") B    
 -0.2783       7 (A') A      5 (A") B    ->    12 (A") B    
  0.2429       7 (A') A      5 (A") B    ->    25 (A") B    
  0.2428       7 (A') B      5 (A") A    ->    25 (A") B    
 -0.2427       7 (A') A      5 (A") A    ->    25 (A") A    
  0.2015       7 (A') A      5 (A") A    ->    16 (A") A    
 -0.2014       7 (A') A      5 (A") B    ->    16 (A") B    
 -0.2014       7 (A') B      5 (A") A    ->    16 (A") B    
  0.1861       7 (A') A      5 (A") B    ->    27 (A") B    
  0.1861       7 (A') B      5 (A") A    ->    27 (A") B    
 -0.1860       7 (A') A      5 (A") A    ->    27 (A") A    
  0.1842       7 (A') A      5 (A") A    ->    10 (A") A    
 -0.1840       7 (A') B      5 (A") A    ->    10 (A") B    
 -0.1840       7 (A') A      5 (A") B    ->    10 (A") B    
  0.1345       7 (A') A      5 (A") A    ->    18 (A") A    
 -0.1344       7 (A') A      5 (A") B    ->    18 (A") B    
 -0.1344       7 (A') B      5 (A") A    ->    18 (A") B    

              Summary of significant orbitals:

               Number  Type             Irrep      Energy
               7       Occ  Alpha       7 (A')    -11.3463
               7       Occ  Beta        7 (A')    -11.3463
               29      Occ  Alpha       5 (A")     -0.3712
               29      Occ  Beta        5 (A")     -0.3712
               46      Vir  Alpha      10 (A")      0.0716
               48      Vir  Alpha      11 (A")      0.0787
               50      Vir  Alpha      12 (A")      0.0859
               66      Vir  Alpha      16 (A")      0.1722
               71      Vir  Alpha      18 (A")      0.2103
               83      Vir  Alpha      21 (A")      0.2958
               111     Vir  Alpha      25 (A")      0.7403
               115     Vir  Alpha      27 (A")      0.7995
               46      Vir  Beta       10 (A")      0.0716
               48      Vir  Beta       11 (A")      0.0787
               50      Vir  Beta       12 (A")      0.0859
               66      Vir  Beta       16 (A")      0.1722
               71      Vir  Beta       18 (A")      0.2103
               83      Vir  Beta       21 (A")      0.2958
               111     Vir  Beta       25 (A")      0.7403
               115     Vir  Beta       27 (A")      0.7995


 EOMIP transition 6/A'
 Total energy = -402.58059491 a.u.  Excitation energy = 307.5169 eV.
 R1^2 = 0.0000  R2_CCVV^2 = 0.0000  R2_COVV^2 = 1.0000  Res^2 = 3.78e-06
 Conv-d = yes

 Amplitude    Transitions between orbitals
  0.3703       6 (A') B      5 (A") A    ->    21 (A") B    
  0.3695       6 (A') A      5 (A") B    ->    21 (A") B    
 -0.3671       6 (A') A      5 (A") A    ->    21 (A") A    
  0.3394       6 (A') B      5 (A") A    ->    15 (A") B    
  0.3386       6 (A') A      5 (A") B    ->    15 (A") B    
 -0.3365       6 (A') A      5 (A") A    ->    15 (A") A    
 -0.3281       6 (A') B      5 (A") A    ->    11 (A") B    
 -0.3275       6 (A') A      5 (A") B    ->    11 (A") B    
  0.3255       6 (A') A      5 (A") A    ->    11 (A") A    
 -0.2469       6 (A') B      5 (A") A    ->    28 (A") B    
 -0.2464       6 (A') A      5 (A") B    ->    28 (A") B    
  0.2447       6 (A') A      5 (A") A    ->    28 (A") A    
  0.2254       6 (A') B      5 (A") A    ->    16 (A") B    
  0.2249       6 (A') A      5 (A") B    ->    16 (A") B    
 -0.2235       6 (A') A      5 (A") A    ->    16 (A") A    
 -0.1752       6 (A') B      5 (A") A    ->    14 (A") B    
 -0.1748       6 (A') A      5 (A") B    ->    14 (A") B    
  0.1737       6 (A') A      5 (A") A    ->    14 (A") A    
 -0.1658       6 (A') B      5 (A") A    ->    26 (A") B    
 -0.1655       6 (A') A      5 (A") B    ->    26 (A") B    
  0.1644       6 (A') A      5 (A") A    ->    26 (A") A    
  0.1624       6 (A') B      5 (A") A    ->    10 (A") B    
  0.1621       6 (A') A      5 (A") B    ->    10 (A") B    
 -0.1611       6 (A') A      5 (A") A    ->    10 (A") A    
  0.1375       6 (A') B      5 (A") A    ->    12 (A") B    
  0.1372       6 (A') A      5 (A") B    ->    12 (A") B    
 -0.1365       6 (A') A      5 (A") A    ->    12 (A") A    
  0.1231       6 (A') B      5 (A") A    ->    23 (A") B    
  0.1229       6 (A') A      5 (A") B    ->    23 (A") B    
 -0.1221       6 (A') A      5 (A") A    ->    23 (A") A    
  0.1077       6 (A') B      5 (A") A    ->    19 (A") B    
  0.1075       6 (A') A      5 (A") B    ->    19 (A") B    
 -0.1068       6 (A') A      5 (A") A    ->    19 (A") A    

              Summary of significant orbitals:

               Number  Type             Irrep      Energy
               6       Occ  Alpha       6 (A')    -11.3881
               6       Occ  Beta        6 (A')    -11.3881
               29      Occ  Alpha       5 (A")     -0.3712
               29      Occ  Beta        5 (A")     -0.3712
               46      Vir  Alpha      10 (A")      0.0716
               48      Vir  Alpha      11 (A")      0.0787
               50      Vir  Alpha      12 (A")      0.0859
               55      Vir  Alpha      14 (A")      0.1156
               63      Vir  Alpha      15 (A")      0.1553
               66      Vir  Alpha      16 (A")      0.1722
               75      Vir  Alpha      19 (A")      0.2409
               83      Vir  Alpha      21 (A")      0.2958
               92      Vir  Alpha      23 (A")      0.4099
               113     Vir  Alpha      26 (A")      0.7758
               116     Vir  Alpha      28 (A")      0.8223
               46      Vir  Beta       10 (A")      0.0716
               48      Vir  Beta       11 (A")      0.0787
               50      Vir  Beta       12 (A")      0.0859
               55      Vir  Beta       14 (A")      0.1156
               63      Vir  Beta       15 (A")      0.1553
               66      Vir  Beta       16 (A")      0.1722
               75      Vir  Beta       19 (A")      0.2409
               83      Vir  Beta       21 (A")      0.2958
               92      Vir  Beta       23 (A")      0.4099
               113     Vir  Beta       26 (A")      0.7758
               116     Vir  Beta       28 (A")      0.8223


 EOMIP transition 7/A'
 Total energy = -402.55781951 a.u.  Excitation energy = 308.1367 eV.
 R1^2 = 0.0039  R2_CCVV^2 = 0.0000  R2_COVV^2 = 0.9961  Res^2 = 2.88e-06
 Conv-d = yes

 Amplitude    Transitions between orbitals
 -0.5215       6 (A') A      5 (A") B    ->    21 (A") B    
 -0.4581       6 (A') A      5 (A") B    ->    15 (A") B    
  0.4412       6 (A') A      5 (A") B    ->    11 (A") B    
  0.3542       6 (A') B      5 (A") A    ->    21 (A") B    
  0.3490       6 (A') A      5 (A") B    ->    28 (A") B    
  0.3298       6 (A') B      5 (A") A    ->    15 (A") B    
 -0.3239       6 (A') B      5 (A") A    ->    11 (A") B    
 -0.3029       6 (A') A      5 (A") B    ->    16 (A") B    
  0.2439       6 (A') A      5 (A") B    ->    14 (A") B    
  0.2358       6 (A') A      5 (A") B    ->    26 (A") B    
 -0.2301       6 (A') B      5 (A") A    ->    28 (A") B    
 -0.2219       6 (A') A      5 (A") B    ->    10 (A") B    
  0.2194       6 (A') B      5 (A") A    ->    16 (A") B    
 -0.1795       6 (A') A      5 (A") B    ->    12 (A") B    
 -0.1706       6 (A') B      5 (A") A    ->    14 (A") B    
 -0.1679       6 (A') A      5 (A") B    ->    23 (A") B    
 -0.1677       6 (A') A      5 (A") A    ->    21 (A") A    
  0.1602       6 (A') B      5 (A") A    ->    10 (A") B    
 -0.1558       6 (A') A      5 (A") B    ->    19 (A") B    
 -0.1549       6 (A') B      5 (A") A    ->    26 (A") B    
  0.1364       6 (A') B      5 (A") A    ->    12 (A") B    
 -0.1285       6 (A') A      5 (A") A    ->    15 (A") A    
  0.1190       6 (A') A      5 (A") A    ->    28 (A") A    
  0.1173       6 (A') B      5 (A") A    ->    23 (A") B    
  0.1172       6 (A') A      5 (A") A    ->    11 (A") A    
 -0.1106       6 (A') A      5 (A") B    ->    18 (A") B    
  0.1078       6 (A') A      5 (A") B    ->    49 (A") B    
  0.1077       6 (A') A      5 (A") B    ->    20 (A") B    
  0.1034       6 (A') B      5 (A") A    ->    19 (A") B    

              Summary of significant orbitals:

               Number  Type             Irrep      Energy
               6       Occ  Alpha       6 (A')    -11.3881
               6       Occ  Beta        6 (A')    -11.3881
               29      Occ  Alpha       5 (A")     -0.3712
               29      Occ  Beta        5 (A")     -0.3712
               48      Vir  Alpha      11 (A")      0.0787
               63      Vir  Alpha      15 (A")      0.1553
               83      Vir  Alpha      21 (A")      0.2958
               116     Vir  Alpha      28 (A")      0.8223
               46      Vir  Beta       10 (A")      0.0716
               48      Vir  Beta       11 (A")      0.0787
               50      Vir  Beta       12 (A")      0.0859
               55      Vir  Beta       14 (A")      0.1156
               63      Vir  Beta       15 (A")      0.1553
               66      Vir  Beta       16 (A")      0.1722
               71      Vir  Beta       18 (A")      0.2103
               75      Vir  Beta       19 (A")      0.2409
               80      Vir  Beta       20 (A")      0.2784
               83      Vir  Beta       21 (A")      0.2958
               92      Vir  Beta       23 (A")      0.4099
               113     Vir  Beta       26 (A")      0.7758
               116     Vir  Beta       28 (A")      0.8223
               187     Vir  Beta       49 (A")      3.0944


 EOMIP transition 8/A'
 Total energy = -402.55672432 a.u.  Excitation energy = 308.1665 eV.
 R1^2 = 0.0074  R2_CCVV^2 = 0.0000  R2_COVV^2 = 0.9926  Res^2 = 2.48e-05
 Conv-d = yes

 Amplitude    Transitions between orbitals
  0.5874       7 (A') B      5 (A") A    ->    11 (A") B    
 -0.5052       7 (A') A      5 (A") B    ->    11 (A") B    
 -0.3355       7 (A') B      5 (A") A    ->    12 (A") B    
  0.3322       7 (A') B      5 (A") A    ->    21 (A") B    
  0.2886       7 (A') A      5 (A") B    ->    12 (A") B    
 -0.2853       7 (A') A      5 (A") B    ->    21 (A") B    
 -0.2671       7 (A') A      4 (A") B    ->    11 (A") B    
  0.2611       7 (A') B      5 (A") A    ->    25 (A") B    
 -0.2550       7 (A') A      5 (A") B    ->    25 (A") B    
 -0.2348       7 (A') B      5 (A") A    ->    16 (A") B    
 -0.2262       7 (A') B      5 (A") A    ->    10 (A") B    
  0.2141       7 (A') A      5 (A") B    ->    16 (A") B    
  0.2056       7 (A') B      5 (A") A    ->    27 (A") B    
  0.1945       7 (A') B      4 (A") A    ->    11 (A") B    
 -0.1856       7 (A') A      5 (A") B    ->    27 (A") B    
  0.1855       7 (A') A      5 (A") B    ->    10 (A") B    
[...]
193   -1.2441e-15
194   -4.3779e-16
195   -1.9868e-15
196   6.8929e-16
197   1.7568e-15
198   1.6921e-15
199   -5.2404e-16
200   -3.5268e-16
201   -4.6623e-16
202   -2.7210e-15
203   -2.5850e-16
204   2.5135e-17
205   3.3844e-16
206   1.9471e-15
207   1.6126e-15
208   -3.2925e-16
209   8.5626e-16
210   -2.8650e-15
211   3.6826e-16
212   -2.7582e-15
213   8.0461e-16
214   -1.5874e-15
215   -1.7348e-15
216   2.4517e-15
217   2.8708e-15
218   -6.7493e-16
219   -1.6489e-15
220   -1.0647e-15
221   1.3330e-16
222   -8.0565e-16
223   -3.8976e-16
224   -3.8048e-15
225   1.0713e-15
226   -1.0558e-15
227   -1.3685e-16
228   -4.5214e-15
229   -1.9071e-15
230   5.8311e-16
231   -4.6502e-16
232   2.3863e-15
233   -1.8384e-15
234   -9.7818e-16
235   5.3935e-16
236   -6.5440e-16
237   5.7249e-16
238   9.6127e-16
239   -6.2973e-16
240   -1.7786e-15
241   1.3113e-15
242   5.9097e-16
243   2.0552e-15
244   -1.0379e-15
245   1.5907e-15
246   1.1025e-15
247   8.1943e-16
248   -6.2722e-16
249   1.2380e-15
250   4.0791e-16
251   -1.1750e-15
252   3.0460e-16
253   -1.3726e-15
254   -1.5904e-16
255   4.7050e-16
256   -1.1851e-16
257   -1.7105e-16
258   -6.7306e-16
259   1.6293e-15
260   -9.2984e-16
261   -2.4116e-16
262   1.7780e-15
263   4.7250e-16
264   -5.8929e-16
265   1.5616e-15
266   9.3171e-17
267   -9.9642e-16
268   -1.0864e-15
269   -8.5536e-17
270   -1.3589e-15
271   -4.2283e-16
272   -2.0028e-16
273   7.2095e-16

Decomposition over AOs for the right alpha Dyson orbital:
-3.31838472e-05
-2.56976211e-04
-1.28148420e-03
-4.40220043e-03
-1.03808399e-02
-3.82513130e-03
-1.40190648e-02
1.68777780e-04
6.61164306e-05
2.55657361e-15
4.54896935e-04
5.28314673e-04
3.00352661e-04
2.13517042e-15
-1.03896268e-03
-2.79697100e-04
-6.39482809e-04
3.74452265e-15
-2.59208470e-03
-1.13513073e-04
-1.38513557e-03
6.08535613e-14
-2.16631752e-04
3.10557398e-07
-2.57484854e-04
-6.42702887e-14
2.85488926e-04
-2.93220637e-16
-1.58214015e-05
1.67430792e-15
2.06851435e-04
6.16781348e-06
5.57228788e-05
9.57579546e-05
3.15500153e-04
1.39151591e-05
-5.17336624e-06
-3.60731869e-16
1.76350492e-05
5.26950043e-05
-4.16963021e-04
-6.93570379e-04
5.72248601e-05
5.91687874e-05
1.20381897e-15
1.24789448e-05
4.11546014e-05
1.92547461e-05
2.48422730e-04
5.68158672e-06
-4.74711378e-06
-2.62126689e-15
6.91992094e-08
5.60034699e-07
2.61807833e-06
9.67256883e-06
1.64575158e-05
-1.86735758e-05
4.44747461e-05
-3.80365412e-06
3.69910566e-06
-4.10051395e-15
6.97789647e-05
9.53780845e-06
-1.30377785e-05
-1.09881306e-14
-6.11293726e-04
-4.70255708e-04
2.54199706e-04
-6.90848117e-15
6.91261468e-05
-1.98293926e-04
-1.02142677e-04
7.46646252e-14
7.21801683e-05
-7.55060394e-05
4.55575968e-05
6.35013872e-14
4.01045660e-06
-1.68552245e-15
9.40210730e-06
5.05277421e-16
2.53398911e-06
-4.78338512e-10
3.89292941e-09
-3.51505160e-08
8.30945621e-08
-1.78928783e-06
-7.58610525e-06
4.44007648e-06
-2.50419983e-06
6.41310354e-07
-3.60021880e-15
1.97001080e-05
1.26489883e-05
-4.48161987e-06
-5.12553681e-15
-9.18580584e-05
-4.36071202e-05
2.34760201e-05
-8.18379719e-15
-5.28882052e-04
-1.28771914e-04
8.37170993e-05
-1.49056447e-14
-8.55534052e-05
6.04989021e-05
1.07166484e-04
-3.08064694e-14
-3.47066114e-07
5.09567520e-16
1.16754009e-06
-7.58608834e-16
1.30741891e-06
-2.25669931e-06
-1.74449615e-05
-8.73113206e-05
-2.99305776e-04
-7.18942769e-04
-3.87458308e-04
-9.53804008e-04
-5.41442042e-06
-8.10422060e-05
5.40655562e-17
5.49555597e-04
-3.63161422e-05
-6.32112604e-04
4.20812966e-15
-6.18213343e-04
5.25108702e-04
9.20620660e-04
-3.61050732e-15
-1.86651146e-03
7.80871389e-04
1.05438974e-03
7.75872269e-14
-3.10605970e-04
-7.40516229e-05
3.21067824e-06
-3.86366059e-14
5.73044111e-05
-8.72348104e-16
-7.20464853e-05
2.67390923e-15
-3.51716217e-04
4.44722677e-09
7.01612522e-08
8.68154825e-08
1.26323768e-06
-6.64156340e-06
-3.56523220e-05
2.68544878e-05
7.91593302e-06
2.36572819e-05
1.97643592e-15
7.28968111e-05
-4.40824215e-05
-4.19953254e-05
1.19038013e-15
-1.99328121e-04
1.26130021e-04
1.72999801e-06
6.59104022e-15
-8.36370393e-04
1.19038492e-04
4.86885751e-05
-4.71285014e-15
-1.82455684e-03
3.62691474e-04
1.04822464e-04
5.08371144e-15
2.78089321e-05
-9.78186082e-17
-1.41392482e-06
-1.82549802e-16
-2.49574239e-05
5.99581352e-09
8.88428280e-08
1.29609746e-07
1.62272379e-06
-7.19789302e-06
-4.12256677e-05
3.09980106e-05
-2.40297443e-05
1.39992910e-05
-1.12449739e-15
4.79040100e-05
8.76180237e-05
-3.71266486e-05
-1.05270652e-14
2.88664940e-04
-1.94648205e-04
-2.21553518e-04
1.12196516e-14
6.56350963e-04
-2.58875041e-04
-2.87806214e-04
-6.08022002e-14
7.08419776e-04
5.98250749e-04
-1.92052206e-04
-3.88372364e-14
-3.47006943e-05
1.51267507e-16
-4.42948787e-06
1.52476166e-15
1.61472939e-05
1.43340939e-08
1.52971472e-07
4.41745270e-07
2.70933757e-06
-4.54260847e-06
-3.72817953e-05
3.52450559e-05
-2.87348758e-05
9.75537099e-06
1.00480280e-15
3.88268062e-05
7.41162393e-05
-2.98209129e-05
-6.30733796e-15
3.03462061e-04
1.56028126e-04
1.87001750e-04
9.68082273e-15
1.02187160e-03
4.32425053e-04
2.55307401e-04
-5.54590481e-14
5.82538812e-04
5.49397398e-05
2.23876195e-04
-1.02527665e-14
-1.70422945e-05
-1.41590698e-15
-7.90332910e-06
6.30930450e-16
3.49433450e-05
1.10865566e-03
8.58292795e-03
4.28141715e-02
1.47002041e-01
3.47247425e-01
1.26995327e-01
4.64833763e-01
-1.77593474e-04
2.33840076e-04
3.57600833e-15
1.81832370e-03
-3.43027278e-05
-1.45392815e-04
1.71440054e-15
1.88297253e-03
-8.11955517e-04
6.13524832e-04
1.51221663e-14
4.59204349e-03
-1.01455924e-03
1.03100613e-03
-6.89161520e-14
2.70789486e-04
1.00730609e-04
2.26080032e-04
8.30101986e-14
6.23946950e-05
2.36065845e-17
-9.67697312e-05
-1.70836432e-16
7.99317849e-05
3.77550905e-04
4.49811560e-04
2.95103164e-04
4.79928787e-04
-2.63926745e-04
1.53694168e-04
1.60700036e-15
   *****

     End transition

 Dyson orbitals calculation:   CPU 4.22 s  wall 2.70 s

 Total ccman2 time:   CPU 14849.03 s  wall 4575.01 s


 --------------------------------------------------------------
             Orbital Energies (a.u.) and Symmetries
 --------------------------------------------------------------

 Alpha MOs, Restricted
 -- Occupied --                  
-20.550 -20.545 -15.649 -15.632 -11.427 -11.388 -11.346 -11.261
  1 A'    2 A'    3 A'    4 A'    5 A'    6 A'    7 A'    8 A'                 
 -1.442  -1.404  -1.318  -1.250  -1.093  -0.938  -0.906  -0.812
  9 A'   10 A'   11 A'   12 A'   13 A'   14 A'   15 A'   16 A'                 
 -0.770  -0.718  -0.681  -0.671  -0.657  -0.619  -0.605  -0.573
 17 A'   18 A'   19 A'    1 A"   20 A'   21 A'   22 A'    2 A"                 
 -0.528  -0.487  -0.452  -0.438  -0.371
  3 A"   23 A'   24 A'    4 A"    5 A"                                         
 -- Virtual --                   
  0.005   0.019   0.020   0.022   0.031   0.033   0.035   0.036
 25 A'   26 A'    6 A"   27 A'   28 A'   29 A'   30 A'    7 A"                 
  0.038   0.046   0.047   0.049   0.053   0.054   0.055   0.068
  8 A"   31 A'   32 A'   33 A'   34 A'    9 A"   35 A'   36 A'                 
  0.072   0.072   0.079   0.085   0.086   0.088   0.095   0.097
 10 A"   37 A'   11 A"   38 A'   12 A"   39 A'   40 A'   41 A'                 
  0.112   0.116   0.118   0.120   0.127   0.131   0.134   0.137
 13 A"   14 A"   42 A'   43 A'   44 A'   45 A'   46 A'   47 A'                 
  0.138   0.155   0.162   0.164   0.172   0.184   0.189   0.195
 48 A'   15 A"   49 A'   50 A'   16 A"   51 A'   17 A"   52 A'                 
  0.209   0.210   0.224   0.230   0.235   0.241   0.243   0.260
 53 A'   18 A"   54 A'   55 A'   56 A'   19 A"   57 A'   58 A'                 
  0.266   0.270   0.278   0.279   0.286   0.296   0.300   0.333
 59 A'   60 A'   20 A"   61 A'   62 A'   21 A"   63 A'   22 A"                 
  0.333   0.347   0.373   0.388   0.391   0.405   0.410   0.410
 64 A'   65 A'   66 A'   67 A'   68 A'   69 A'   23 A"   70 A'                 
  0.420   0.422   0.441   0.449   0.455   0.463   0.481   0.482
 24 A"   71 A'   72 A'   73 A'   74 A'   75 A'   76 A'   77 A'                 
  0.505   0.529   0.545   0.558   0.615   0.630   0.655   0.706
 78 A'   79 A'   80 A'   81 A'   82 A'   83 A'   84 A'   85 A'                 
  0.734   0.740   0.761   0.776   0.778   0.799   0.822   0.824
 86 A'   25 A"   87 A'   26 A"   88 A'   27 A"   28 A"   89 A'                 
  0.878   0.888   0.938   0.963   0.971   0.979   1.008   1.015
 90 A'   91 A'   92 A'   93 A'   94 A'   95 A'   96 A'   97 A'                 
  1.029   1.042   1.061   1.093   1.100   1.114   1.159   1.227
 98 A'   29 A"   99 A'   30 A"  100 A'  101 A'  102 A'   31 A"                 
  1.242   1.245   1.270   1.301   1.368   1.370   1.393   1.406
 32 A"  103 A'  104 A'  105 A'  106 A'   33 A"   34 A"   35 A"                 
  1.421   1.441   1.460   1.464   1.513   1.515   1.543   1.557
 36 A"  107 A'  108 A'   37 A"   38 A"  109 A'  110 A'  111 A'                 
  1.583   1.760   1.777   1.803   1.814   1.877   1.899   1.915
112 A'  113 A'  114 A'  115 A'   39 A"  116 A'   40 A"  117 A'                 
  1.929   1.952   1.980   2.013   2.014   2.067   2.124   2.143
 41 A"  118 A'  119 A'   42 A"  120 A'  121 A'  122 A'  123 A'                 
  2.186   2.223   2.236   2.283   2.299   2.340   2.358   2.532
124 A'   43 A"  125 A'  126 A'  127 A'   44 A"  128 A'  129 A'                 
  2.566   2.589   2.643   2.668   2.728   2.807   2.822   2.851
 45 A"  130 A'   46 A"  131 A'   47 A"  132 A'   48 A"  133 A'                 
  2.932   2.957   3.006   3.019   3.048   3.094   3.168   3.181
134 A'  135 A'  136 A'  137 A'  138 A'   49 A"   50 A"  139 A'                 
  3.184   3.211   3.263   3.271   3.297   3.310   3.325   3.347
 51 A"  140 A'   52 A"  141 A'  142 A'   53 A"  143 A'   54 A"                 
  3.401   3.515   3.588   3.756   3.766   3.819   3.840   3.876
144 A'  145 A'  146 A'   55 A"   56 A"  147 A'  148 A'  149 A'                 
  3.914   3.959   4.017   4.049   4.106   4.288   4.305   4.364
150 A'  151 A'  152 A'  153 A'  154 A'  155 A'   57 A"   58 A"                 
  4.411   4.485   4.605   5.012   5.158   5.288   5.441   5.553
156 A'  157 A'  158 A'  159 A'  160 A'  161 A'  162 A'  163 A'                 
  5.625   5.633   5.690   5.713   5.782   5.864   5.902   6.438
 59 A"   60 A"  164 A'  165 A'  166 A'  167 A'  168 A'  169 A'                 
  6.445   7.668   7.729   9.888   9.934  20.639  20.695  20.726
170 A'  171 A'  172 A'  173 A'  174 A'  175 A'  176 A'  177 A'                 
 20.897  30.195  30.235  40.894  40.935  80.190  80.235  80.273
178 A'  179 A'  180 A'  181 A'  182 A'  183 A'  184 A'  185 A'                 
 80.428 116.314 116.350 159.240 159.273 322.013 322.053 322.094
186 A'  187 A'  188 A'  189 A'  190 A'  191 A'  192 A'  193 A'                 
322.233 460.413 460.445 631.938 631.9651431.5641431.6041431.646
194 A'  195 A'  196 A'  197 A'  198 A'  199 A'  200 A'  201 A'                 
*******2012.8872012.9162759.3342759.3578749.7838749.8248749.866
202 A'  203 A'  204 A'  205 A'  206 A'  207 A'  208 A'  209 A'                 
***************************************
210 A'  211 A'  212 A'  213 A'  214 A'                                         

 Beta MOs, Restricted
 -- Occupied --                  
-20.550 -20.545 -15.649 -15.632 -11.427 -11.388 -11.346 -11.261
  1 A'    2 A'    3 A'    4 A'    5 A'    6 A'    7 A'    8 A'                 
 -1.442  -1.404  -1.318  -1.250  -1.093  -0.938  -0.906  -0.812
  9 A'   10 A'   11 A'   12 A'   13 A'   14 A'   15 A'   16 A'                 
 -0.770  -0.718  -0.681  -0.671  -0.657  -0.619  -0.605  -0.573
 17 A'   18 A'   19 A'    1 A"   20 A'   21 A'   22 A'    2 A"                 
 -0.528  -0.487  -0.452  -0.438  -0.371
  3 A"   23 A'   24 A'    4 A"    5 A"                                         
 -- Virtual --                   
  0.005   0.019   0.020   0.022   0.031   0.033   0.035   0.036
 25 A'   26 A'    6 A"   27 A'   28 A'   29 A'   30 A'    7 A"                 
  0.038   0.046   0.047   0.049   0.053   0.054   0.055   0.068
  8 A"   31 A'   32 A'   33 A'   34 A'    9 A"   35 A'   36 A'                 
  0.072   0.072   0.079   0.085   0.086   0.088   0.095   0.097
 10 A"   37 A'   11 A"   38 A'   12 A"   39 A'   40 A'   41 A'                 
  0.112   0.116   0.118   0.120   0.127   0.131   0.134   0.137
 13 A"   14 A"   42 A'   43 A'   44 A'   45 A'   46 A'   47 A'                 
  0.138   0.155   0.162   0.164   0.172   0.184   0.189   0.195
 48 A'   15 A"   49 A'   50 A'   16 A"   51 A'   17 A"   52 A'                 
  0.209   0.210   0.224   0.230   0.235   0.241   0.243   0.260
 53 A'   18 A"   54 A'   55 A'   56 A'   19 A"   57 A'   58 A'                 
  0.266   0.270   0.278   0.279   0.286   0.296   0.300   0.333
 59 A'   60 A'   20 A"   61 A'   62 A'   21 A"   63 A'   22 A"                 
  0.333   0.347   0.373   0.388   0.391   0.405   0.410   0.410
 64 A'   65 A'   66 A'   67 A'   68 A'   69 A'   23 A"   70 A'                 
  0.420   0.422   0.441   0.449   0.455   0.463   0.481   0.482
 24 A"   71 A'   72 A'   73 A'   74 A'   75 A'   76 A'   77 A'                 
  0.505   0.529   0.545   0.558   0.615   0.630   0.655   0.706
 78 A'   79 A'   80 A'   81 A'   82 A'   83 A'   84 A'   85 A'                 
  0.734   0.740   0.761   0.776   0.778   0.799   0.822   0.824
 86 A'   25 A"   87 A'   26 A"   88 A'   27 A"   28 A"   89 A'                 
  0.878   0.888   0.938   0.963   0.971   0.979   1.008   1.015
 90 A'   91 A'   92 A'   93 A'   94 A'   95 A'   96 A'   97 A'                 
  1.029   1.042   1.061   1.093   1.100   1.114   1.159   1.227
 98 A'   29 A"   99 A'   30 A"  100 A'  101 A'  102 A'   31 A"                 
  1.242   1.245   1.270   1.301   1.368   1.370   1.393   1.406
 32 A"  103 A'  104 A'  105 A'  106 A'   33 A"   34 A"   35 A"                 
  1.421   1.441   1.460   1.464   1.513   1.515   1.543   1.557
 36 A"  107 A'  108 A'   37 A"   38 A"  109 A'  110 A'  111 A'                 
  1.583   1.760   1.777   1.803   1.814   1.877   1.899   1.915
112 A'  113 A'  114 A'  115 A'   39 A"  116 A'   40 A"  117 A'                 
  1.929   1.952   1.980   2.013   2.014   2.067   2.124   2.143
 41 A"  118 A'  119 A'   42 A"  120 A'  121 A'  122 A'  123 A'                 
  2.186   2.223   2.236   2.283   2.299   2.340   2.358   2.532
124 A'   43 A"  125 A'  126 A'  127 A'   44 A"  128 A'  129 A'                 
  2.566   2.589   2.643   2.668   2.728   2.807   2.822   2.851
 45 A"  130 A'   46 A"  131 A'   47 A"  132 A'   48 A"  133 A'                 
  2.932   2.957   3.006   3.019   3.048   3.094   3.168   3.181
134 A'  135 A'  136 A'  137 A'  138 A'   49 A"   50 A"  139 A'                 
  3.184   3.211   3.263   3.271   3.297   3.310   3.325   3.347
 51 A"  140 A'   52 A"  141 A'  142 A'   53 A"  143 A'   54 A"                 
  3.401   3.515   3.588   3.756   3.766   3.819   3.840   3.876
144 A'  145 A'  146 A'   55 A"   56 A"  147 A'  148 A'  149 A'                 
  3.914   3.959   4.017   4.049   4.106   4.288   4.305   4.364
150 A'  151 A'  152 A'  153 A'  154 A'  155 A'   57 A"   58 A"                 
  4.411   4.485   4.605   5.012   5.158   5.288   5.441   5.553
156 A'  157 A'  158 A'  159 A'  160 A'  161 A'  162 A'  163 A'                 
  5.625   5.633   5.690   5.713   5.782   5.864   5.902   6.438
 59 A"   60 A"  164 A'  165 A'  166 A'  167 A'  168 A'  169 A'                 
  6.445   7.668   7.729   9.888   9.934  20.639  20.695  20.726
170 A'  171 A'  172 A'  173 A'  174 A'  175 A'  176 A'  177 A'                 
 20.897  30.195  30.235  40.894  40.935  80.190  80.235  80.273
178 A'  179 A'  180 A'  181 A'  182 A'  183 A'  184 A'  185 A'                 
 80.428 116.314 116.350 159.240 159.273 322.013 322.053 322.094
186 A'  187 A'  188 A'  189 A'  190 A'  191 A'  192 A'  193 A'                 
322.233 460.413 460.445 631.938 631.9651431.5641431.6041431.646
194 A'  195 A'  196 A'  197 A'  198 A'  199 A'  200 A'  201 A'                 
*******2012.8872012.9162759.3342759.3578749.7838749.8248749.866
202 A'  203 A'  204 A'  205 A'  206 A'  207 A'  208 A'  209 A'                 
***************************************
210 A'  211 A'  212 A'  213 A'  214 A'                                         
 --------------------------------------------------------------

          Ground-State Mulliken Net Atomic Charges

     Atom                 Charge (a.u.)
  ----------------------------------------
      1 C                     0.041345
      2 H                     0.361959
      3 H                     0.163670
      4 H                     0.394985
      5 C                     0.245726
      6 O                    -0.078193
      7 C                     0.021288
      8 O                    -0.118248
      9 N                    -0.604359
     10 N                    -0.410869
     11 C                    -0.261285
     12 H                     0.243982
  ----------------------------------------
  Sum of atomic charges =     0.000000

 -----------------------------------------------------------------
                    Cartesian Multipole Moments
 -----------------------------------------------------------------
    Charge (ESU x 10^10)
                 0.0000
    Dipole Moment (Debye)
         X      -1.3839      Y      -4.9543      Z      -0.0000
       Tot       5.1439
    Quadrupole Moments (Debye-Ang)
        XX     -60.6807     XY       2.5027     YY     -38.3445
        XZ       0.0000     YZ      -0.0000     ZZ     -46.9509
    Octopole Moments (Debye-Ang^2)
       XXX     -11.3708    XXY     -34.8372    XYY      -5.2065
       YYY      -9.0564    XXZ      -0.0000    XYZ      -0.0000
       YYZ      -0.0000    XZZ      -1.9200    YZZ       4.3285
       ZZZ      -0.0000
    Hexadecapole Moments (Debye-Ang^3)
      XXXX    -728.3246   XXXY      12.7275   XXYY    -177.0147
      XYYY      13.2604   YYYY    -304.5155   XXXZ       0.0000
      XXYZ      -0.0000   XYYZ       0.0000   YYYZ      -0.0000
      XXZZ    -114.2361   XYZZ       2.9662   YYZZ     -75.7730
      XZZZ       0.0000   YZZZ      -0.0000   ZZZZ     -47.0015
 -----------------------------------------------------------------
Archival summary:
1\1\n-62-29-9\SP\ProcedureUnspecified\BasisUnspecified\2244\malop\MonJun319:23:192019MonJun319:23:192019\0\\#,ProcedureUnspecified,BasisUnspecified,\\0,1\N\H,1,1.01081\C,1,1.37966,2,115.327\O,3,1.21479,1,124.21,2,0,0\N,3,1.3852,1,112.713,2,180,0\H,5,1.00619,3,115.142,1,-180,0\C,5,1.37008,3,123.626,1,-0,0\H,7,1.07981,5,115.516,3,180,0\C,7,1.34802,5,121.979,3,-0,0\H,9,1.07615,7,121.525,5,-180,0\C,1,1.40335,2,116.035,3,-180,0\O,11,1.21832,1,120.541,2,0,0\\HF=-412.580334\\@

 Total job time:  4633.65s(wall), 15030.41s(cpu) 
 Mon Jun  3 19:23:19 2019

======= MOLDEN-FORMATTED INPUT FILE FOLLOWS =======
[Molden Format]
[Atoms] (Angs)
  C      1    6     -0.00714236     -1.70213747     -0.00000000
  H      2    1     -2.06882847     -1.44022412      0.00000000
  H      3    1     -0.12337987     -2.77567521      0.00000000
  H      4    1      0.04651892      1.98813947     -0.00000000
  C      5    6     -1.21953563      0.40211669      0.00000000
  O      6    8     -2.25921553      1.03043814      0.00000000
  C      7    6      1.28797806      0.34644937     -0.00000000
  O      8    8      2.31273661      1.00537216     -0.00000000
  N      9    7      0.03446295      0.97739857     -0.00000000
  N     10    7     -1.17287765     -0.98229824      0.00000000
  C     11    6      1.20107039     -1.10433419     -0.00000000
  H     12    1      2.11220096     -1.67699125     -0.00000000

======= END OF MOLDEN-FORMATTED INPUT FILE =======


        *************************************************************
        *                                                           *
        *  Thank you very much for using Q-Chem.  Have a nice day.  *
        *                                                           *
        *************************************************************


