                  Welcome to Q-Chem
     A Quantum Leap Into The Future Of Chemistry


 Q-Chem 5.2 (devel), Q-Chem, Inc., Pleasanton, CA (2019)

 Yihan Shao,  Zhengting Gan,  E. Epifanovsky,  A. T. B. Gilbert,  M. Wormit,  
 J. Kussmann,  A. W. Lange,  A. Behn,  Jia Deng,  Xintian Feng,  D. Ghosh,  
 M. Goldey,  P. R. Horn,  L. D. Jacobson,  I. Kaliman,  T. Kus,  A. Landau,  
 Jie Liu,  E. I. Proynov,  R. M. Richard,  R. P. Steele,  E. J. Sundstrom,  
 H. L. Woodcock III,  P. M. Zimmerman,  D. Zuev,  B. Albrecht,  E. Alguire,  
 S. A. Baeppler,  D. Barton,  Z. Benda,  Y. A. Bernard,  E. J. Berquist,  
 K. B. Bravaya,  H. Burton,  D. Casanova,  Chun-Min Chang,  Yunqing Chen,  
 A. Chien,  K. D. Closser,  M. P. Coons,  S. Coriani,  S. Dasgupta,  
 A. L. Dempwolff,  M. Diedenhofen,  Hainam Do,  R. G. Edgar,  Po-Tung Fang,  
 S. Faraji,  S. Fatehi,  Qingguo Feng,  K. D. Fenk,  J. Fosso-Tande,  
 J. Gayvert,  Qinghui Ge,  A. Ghysels,  G. Gidofalvi,  J. Gomes,  
 J. Gonthier,  A. Gunina,  D. Hait,  M. W. D. Hanson-Heine,  
 P. H. P. Harbach,  A. W. Hauser,  M. F. Herbst,  J. E. Herr,  
 E. G. Hohenstein,  Z. C. Holden,  Kerwin Hui,  B. C. Huynh,  T.-C. Jagau,  
 Hyunjun Ji,  B. Kaduk,  K. Khistyaev,  Jaehoon Kim,  P. Klunzinger,  K. Koh,  
 D. Kosenkov,  L. Koulias,  T. Kowalczyk,  C. M. Krauter,  A. Kunitsa,  
 Ka Un Lao,  A. Laurent,  K. V. Lawler,  Joonho Lee,  D. Lefrancois,  
 S. Lehtola,  D. S. Levine,  Yi-Pei Li,  You-Sheng Lin,  Fenglai Liu,  
 E. Livshits,  A. Luenser,  P. Manohar,  E. Mansoor,  S. F. Manzer,  
 Shan-Ping Mao,  Yuezhi Mao,  N. Mardirossian,  A. V. Marenich,  
 T. Markovich,  L. A. Martinez-Martinez,  S. A. Maurer,  N. J. Mayhall,  
 S. C. McKenzie,  J.-M. Mewes,  P. Morgante,  A. F. Morrison,  
 J. W. Mullinax,  K. Nanda,  T. S. Nguyen-Beck,  R. Olivares-Amaya,  
 J. A. Parkhill,  Zheng Pei,  T. M. Perrine,  F. Plasser,  P. Pokhilko,  
 S. Prager,  A. Prociuk,  E. Ramos,  D. R. Rehn,  F. Rob,  M. Scheurer,  
 M. Schneider,  N. Sergueev,  S. M. Sharada,  S. Sharma,  D. W. Small,  
 T. Stauch,  T. Stein,  Yu-Chuan Su,  A. J. W. Thom,  A. Tkatchenko,  
 T. Tsuchimochi,  N. M. Tubman,  L. Vogt,  M. L. Vidal,  O. Vydrov,  
 M. A. Watson,  J. Wenzel,  M. de Wergifosse,  T. A. Wesolowski,  A. White,  
 J. Witte,  A. Yamada,  Jun Yang,  K. Yao,  S. Yeganeh,  S. R. Yost,  
 Zhi-Qiang You,  A. Zech,  Igor Ying Zhang,  Xing Zhang,  Yan Zhao,  
 Ying Zhu,  B. R. Brooks,  G. K. L. Chan,  C. J. Cramer,  M. S. Gordon,  
 W. J. Hehre,  A. Klamt,  M. W. Schmidt,  C. D. Sherrill,  D. G. Truhlar,  
 A. Aspuru-Guzik,  R. Baer,  A. T. Bell,  N. A. Besley,  Jeng-Da Chai,  
 A. E. DePrince, III,  R. A. DiStasio Jr.,  A. Dreuw,  B. D. Dunietz,  
 T. R. Furlani,  Chao-Ping Hsu,  Yousung Jung,  Jing Kong,  D. S. Lambrecht,  
 WanZhen Liang,  C. Ochsenfeld,  V. A. Rassolov,  L. V. Slipchenko,  
 J. E. Subotnik,  T. Van Voorhis,  J. M. Herbert,  A. I. Krylov,  
 P. M. W. Gill,  M. Head-Gordon

 Contributors to earlier versions of Q-Chem not listed above: 
 R. D. Adamson,  B. Austin,  J. Baker,  G. J. O. Beran,  K. Brandhorst,  
 S. T. Brown,  E. F. C. Byrd,  A. K. Chakraborty,  C.-L. Cheng,  
 Siu Hung Chien,  D. M. Chipman,  D. L. Crittenden,  H. Dachsel,  
 R. J. Doerksen,  A. D. Dutoi,  L. Fusti-Molnar,  W. A. Goddard III,  
 A. Golubeva-Zadorozhnaya,  S. R. Gwaltney,  G. Hawkins,  A. Heyden,  
 S. Hirata,  G. Kedziora,  F. J. Keil,  C. Kelley,  Jihan Kim,  R. A. King,  
 R. Z. Khaliullin,  P. P. Korambath,  W. Kurlancheek,  A. M. Lee,  M. S. Lee,  
 S. V. Levchenko,  Ching Yeh Lin,  D. Liotard,  R. C. Lochan,  I. Lotan,  
 P. E. Maslen,  N. Nair,  D. P. O'Neill,  D. Neuhauser,  E. Neuscamman,  
 C. M. Oana,  R. Olson,  B. Peters,  R. Peverati,  P. A. Pieniazek,  
 Y. M. Rhee,  J. Ritchie,  M. A. Rohrdanz,  E. Rosta,  N. J. Russ,  
 H. F. Schaefer III,  N. E. Schultz,  N. Shenvi,  A. C. Simmonett,  A. Sodt,  
 D. Stuck,  K. S. Thanthiriwatte,  V. Vanovschi,  Tao Wang,  A. Warshel,  
 C. F. Williams,  Q. Wu,  X. Xu,  W. Zhang

 Please cite Q-Chem as follows:
 Y. Shao et al., Mol. Phys. 113, 184-215 (2015)
 DOI: 10.1080/00268976.2014.952696

 Q-Chem 5.2.0 for Intel X86 EM64T Linux

 Parts of Q-Chem use Armadillo 8.300.2 (Tropical Shenanigans).
 http://arma.sourceforge.net/

 Q-Chem begins on Wed May  8 14:15:05 2019  

n-62-23-14
Host: 0

     Scratch files written to /work1/malop/qchem27569//
NAlpha2: 70
NElect   70
Mult     1

Checking the input file for inconsistencies... 	...done.

--------------------------------------------------------------
User input:
--------------------------------------------------------------
$comment 
NEXAFS Adenine/ 6-311(2+,+)G** (ucC)
optimization: MP2/cc-pVTZ
$end

$molecule
0 1
N      1.663948   -1.127531    0.000000
N     -0.643862   -1.804088    0.000000
N     -0.636159    1.773662    0.000000
N     -2.146840    0.119893    0.000000
N      2.353671    1.084678    0.000000
C      0.668787   -2.022720    0.000000
C     -0.919981   -0.499328    0.000000
C      0.000000    0.546991    0.000000
C      1.356490    0.175959    0.000000
C     -1.907009    1.474843    0.000000
H     -3.039931   -0.341646    0.000000
H     -2.712908    2.189994    0.000000
H      0.978346   -3.060960    0.000000
H      2.144452    2.065199    0.000000
H      3.305020    0.766647    0.000000
$end

$rem
    print_general_basis = true
    jobtype = sp
    method = eom-ccsd
    cvs_ip_states    [5,0]
    basis = general
    n_frozen_core = 5
    cc_trans_prop = true
    cc_do_dyson = true
    print_general_basis = true
    cc_memory = 100000
    molden_format = true
    print_general_basis = true
$end

$basis
H    0
6-311(2+,+)G**
****
O    0
6-311(2+,+)G**
****
C    0
6-311(2+,+)G**
****
N    0
S    1    1.000000
   6.29348000E+03    1.96979000E-03
S    1    1.000000
   9.49044000E+02    1.49613000E-02
S    1    1.000000
   2.18776000E+02    7.35006000E-02
S    1    1.000000
   6.36916000E+01    2.48937000E-01
S    1    1.000000
   1.88282000E+01    6.02460000E-01
S    1    1.000000
   2.72023000E+00    2.56202000E-01
SP   3    1.000000
   3.06331000E+01    1.11906000E-01   3.83119000E-02
   7.02614000E+00    9.21666000E-01   2.37403000E-01
   2.11205000E+00   -2.56919000E-03   8.17592000E-01
SP   1    1.000000
   6.84009000E-01    1.00000000E+00   1.00000000E+00
SP   1    1.000000
   2.00878000E-01    1.00000000E+00   1.00000000E+00
SP   1    1.000000
   6.39000000E-02    1.00000000E+00   1.00000000E+00
SP   1    1.000000
   1.92469880E-02    1.00000000E+00   1.00000000E+00
D    1    1.000000
   9.13000000E-01    1.00000000E+00
****
$end

--------------------------------------------------------------
 ----------------------------------------------------------------
             Standard Nuclear Orientation (Angstroms)
    I     Atom           X                Y                Z
 ----------------------------------------------------------------
    1      N       1.9401893320     0.5250849361     0.0000000000
    2      N      -0.0221326925     1.9154117475     0.0000000000
    3      N      -1.1784087390    -1.4703496296    -0.0000000000
    4      N      -2.0691252255     0.5848226575     0.0000000000
    5      N       1.8729602234    -1.7911764315    -0.0000000000
    6      C       1.2902617955     1.6952571282     0.0000000000
    7      C      -0.7075769660     0.7713809316     0.0000000000
    8      C      -0.1778931772    -0.5172553918    -0.0000000000
    9      C       1.2255227416    -0.6075528111    -0.0000000000
   10      C      -2.2829904496    -0.7744676268    -0.0000000000
   11      H      -2.7635636871     1.3117236177     0.0000000000
   12      H      -3.2776614287    -1.1886460838    -0.0000000000
   13      H       1.9206502371     2.5763811176     0.0000000000
   14      H       1.3562285392    -2.6503518432    -0.0000000000
   15      H       2.8760223840    -1.7998331492    -0.0000000000
 ----------------------------------------------------------------
 Molecular Point Group                 Cs    NOp =  2
 Largest Abelian Subgroup              Cs    NOp =  2
 Nuclear Repulsion Energy =         503.72965651 hartrees
 There are       35 alpha and       35 beta electrons
 Requested basis set is non-standard
Basis set in general basis input format:
-----------------------------------------------------------------------
$basis
N    0
S    1    1.000000
   6.29348000E+03    1.96979000E-03 
S    1    1.000000
   9.49044000E+02    1.49613000E-02 
S    1    1.000000
   2.18776000E+02    7.35006000E-02 
S    1    1.000000
   6.36916000E+01    2.48937000E-01 
S    1    1.000000
   1.88282000E+01    6.02460000E-01 
S    1    1.000000
   2.72023000E+00    2.56202000E-01 
SP   3    1.000000
   3.06331000E+01    1.11906000E-01   3.83119000E-02 
   7.02614000E+00    9.21666000E-01   2.37403000E-01 
   2.11205000E+00   -2.56919000E-03   8.17592000E-01 
SP   1    1.000000
   6.84009000E-01    1.00000000E+00   1.00000000E+00 
SP   1    1.000000
   2.00878000E-01    1.00000000E+00   1.00000000E+00 
SP   1    1.000000
   6.39000000E-02    1.00000000E+00   1.00000000E+00 
SP   1    1.000000
   1.92469880E-02    1.00000000E+00   1.00000000E+00 
D    1    1.000000
   9.13000000E-01    1.00000000E+00 
****
N    0
S    1    1.000000
   6.29348000E+03    1.96979000E-03 
S    1    1.000000
   9.49044000E+02    1.49613000E-02 
S    1    1.000000
   2.18776000E+02    7.35006000E-02 
S    1    1.000000
   6.36916000E+01    2.48937000E-01 
S    1    1.000000
   1.88282000E+01    6.02460000E-01 
S    1    1.000000
   2.72023000E+00    2.56202000E-01 
SP   3    1.000000
   3.06331000E+01    1.11906000E-01   3.83119000E-02 
   7.02614000E+00    9.21666000E-01   2.37403000E-01 
   2.11205000E+00   -2.56919000E-03   8.17592000E-01 
SP   1    1.000000
   6.84009000E-01    1.00000000E+00   1.00000000E+00 
SP   1    1.000000
   2.00878000E-01    1.00000000E+00   1.00000000E+00 
SP   1    1.000000
   6.39000000E-02    1.00000000E+00   1.00000000E+00 
SP   1    1.000000
   1.92469880E-02    1.00000000E+00   1.00000000E+00 
D    1    1.000000
   9.13000000E-01    1.00000000E+00 
****
N    0
S    1    1.000000
   6.29348000E+03    1.96979000E-03 
S    1    1.000000
   9.49044000E+02    1.49613000E-02 
S    1    1.000000
   2.18776000E+02    7.35006000E-02 
S    1    1.000000
   6.36916000E+01    2.48937000E-01 
S    1    1.000000
   1.88282000E+01    6.02460000E-01 
S    1    1.000000
   2.72023000E+00    2.56202000E-01 
SP   3    1.000000
   3.06331000E+01    1.11906000E-01   3.83119000E-02 
   7.02614000E+00    9.21666000E-01   2.37403000E-01 
   2.11205000E+00   -2.56919000E-03   8.17592000E-01 
SP   1    1.000000
   6.84009000E-01    1.00000000E+00   1.00000000E+00 
SP   1    1.000000
   2.00878000E-01    1.00000000E+00   1.00000000E+00 
SP   1    1.000000
   6.39000000E-02    1.00000000E+00   1.00000000E+00 
SP   1    1.000000
   1.92469880E-02    1.00000000E+00   1.00000000E+00 
D    1    1.000000
   9.13000000E-01    1.00000000E+00 
****
N    0
S    1    1.000000
   6.29348000E+03    1.96979000E-03 
S    1    1.000000
   9.49044000E+02    1.49613000E-02 
S    1    1.000000
   2.18776000E+02    7.35006000E-02 
S    1    1.000000
   6.36916000E+01    2.48937000E-01 
S    1    1.000000
   1.88282000E+01    6.02460000E-01 
S    1    1.000000
   2.72023000E+00    2.56202000E-01 
SP   3    1.000000
   3.06331000E+01    1.11906000E-01   3.83119000E-02 
   7.02614000E+00    9.21666000E-01   2.37403000E-01 
   2.11205000E+00   -2.56919000E-03   8.17592000E-01 
SP   1    1.000000
   6.84009000E-01    1.00000000E+00   1.00000000E+00 
SP   1    1.000000
   2.00878000E-01    1.00000000E+00   1.00000000E+00 
SP   1    1.000000
   6.39000000E-02    1.00000000E+00   1.00000000E+00 
SP   1    1.000000
   1.92469880E-02    1.00000000E+00   1.00000000E+00 
D    1    1.000000
   9.13000000E-01    1.00000000E+00 
****
N    0
S    1    1.000000
   6.29348000E+03    1.96979000E-03 
S    1    1.000000
   9.49044000E+02    1.49613000E-02 
S    1    1.000000
   2.18776000E+02    7.35006000E-02 
S    1    1.000000
   6.36916000E+01    2.48937000E-01 
S    1    1.000000
   1.88282000E+01    6.02460000E-01 
S    1    1.000000
   2.72023000E+00    2.56202000E-01 
SP   3    1.000000
   3.06331000E+01    1.11906000E-01   3.83119000E-02 
   7.02614000E+00    9.21666000E-01   2.37403000E-01 
   2.11205000E+00   -2.56919000E-03   8.17592000E-01 
SP   1    1.000000
   6.84009000E-01    1.00000000E+00   1.00000000E+00 
SP   1    1.000000
   2.00878000E-01    1.00000000E+00   1.00000000E+00 
SP   1    1.000000
   6.39000000E-02    1.00000000E+00   1.00000000E+00 
SP   1    1.000000
   1.92469880E-02    1.00000000E+00   1.00000000E+00 
D    1    1.000000
   9.13000000E-01    1.00000000E+00 
****
C    0
S    6    1.000000
   4.56324000E+03    1.96665000E-03 
   6.82024000E+02    1.52306000E-02 
   1.54973000E+02    7.61269000E-02 
   4.44553000E+01    2.60801000E-01 
   1.30290000E+01    6.16462000E-01 
   1.82773000E+00    2.21006000E-01 
SP   3    1.000000
   2.09642000E+01    1.14660000E-01   4.02487000E-02 
   4.80331000E+00    9.19999000E-01   2.37594000E-01 
   1.45933000E+00   -3.03068000E-03   8.15854000E-01 
SP   1    1.000000
   4.83456000E-01    1.00000000E+00   1.00000000E+00 
SP   1    1.000000
   1.45585000E-01    1.00000000E+00   1.00000000E+00 
SP   1    1.000000
   4.38000000E-02    1.00000000E+00   1.00000000E+00 
SP   1    1.000000
   1.31927711E-02    1.00000000E+00   1.00000000E+00 
D    1    1.000000
   6.26000000E-01    1.00000000E+00 
****
C    0
S    6    1.000000
   4.56324000E+03    1.96665000E-03 
   6.82024000E+02    1.52306000E-02 
   1.54973000E+02    7.61269000E-02 
   4.44553000E+01    2.60801000E-01 
   1.30290000E+01    6.16462000E-01 
   1.82773000E+00    2.21006000E-01 
SP   3    1.000000
   2.09642000E+01    1.14660000E-01   4.02487000E-02 
   4.80331000E+00    9.19999000E-01   2.37594000E-01 
   1.45933000E+00   -3.03068000E-03   8.15854000E-01 
SP   1    1.000000
   4.83456000E-01    1.00000000E+00   1.00000000E+00 
SP   1    1.000000
   1.45585000E-01    1.00000000E+00   1.00000000E+00 
SP   1    1.000000
   4.38000000E-02    1.00000000E+00   1.00000000E+00 
SP   1    1.000000
   1.31927711E-02    1.00000000E+00   1.00000000E+00 
D    1    1.000000
   6.26000000E-01    1.00000000E+00 
****
C    0
S    6    1.000000
   4.56324000E+03    1.96665000E-03 
   6.82024000E+02    1.52306000E-02 
   1.54973000E+02    7.61269000E-02 
   4.44553000E+01    2.60801000E-01 
   1.30290000E+01    6.16462000E-01 
   1.82773000E+00    2.21006000E-01 
SP   3    1.000000
   2.09642000E+01    1.14660000E-01   4.02487000E-02 
   4.80331000E+00    9.19999000E-01   2.37594000E-01 
   1.45933000E+00   -3.03068000E-03   8.15854000E-01 
SP   1    1.000000
   4.83456000E-01    1.00000000E+00   1.00000000E+00 
SP   1    1.000000
   1.45585000E-01    1.00000000E+00   1.00000000E+00 
SP   1    1.000000
   4.38000000E-02    1.00000000E+00   1.00000000E+00 
SP   1    1.000000
   1.31927711E-02    1.00000000E+00   1.00000000E+00 
D    1    1.000000
   6.26000000E-01    1.00000000E+00 
****
C    0
S    6    1.000000
   4.56324000E+03    1.96665000E-03 
   6.82024000E+02    1.52306000E-02 
   1.54973000E+02    7.61269000E-02 
   4.44553000E+01    2.60801000E-01 
   1.30290000E+01    6.16462000E-01 
   1.82773000E+00    2.21006000E-01 
SP   3    1.000000
   2.09642000E+01    1.14660000E-01   4.02487000E-02 
   4.80331000E+00    9.19999000E-01   2.37594000E-01 
   1.45933000E+00   -3.03068000E-03   8.15854000E-01 
SP   1    1.000000
   4.83456000E-01    1.00000000E+00   1.00000000E+00 
SP   1    1.000000
   1.45585000E-01    1.00000000E+00   1.00000000E+00 
SP   1    1.000000
   4.38000000E-02    1.00000000E+00   1.00000000E+00 
SP   1    1.000000
   1.31927711E-02    1.00000000E+00   1.00000000E+00 
D    1    1.000000
   6.26000000E-01    1.00000000E+00 
****
C    0
S    6    1.000000
   4.56324000E+03    1.96665000E-03 
   6.82024000E+02    1.52306000E-02 
   1.54973000E+02    7.61269000E-02 
   4.44553000E+01    2.60801000E-01 
   1.30290000E+01    6.16462000E-01 
   1.82773000E+00    2.21006000E-01 
SP   3    1.000000
   2.09642000E+01    1.14660000E-01   4.02487000E-02 
   4.80331000E+00    9.19999000E-01   2.37594000E-01 
   1.45933000E+00   -3.03068000E-03   8.15854000E-01 
SP   1    1.000000
   4.83456000E-01    1.00000000E+00   1.00000000E+00 
SP   1    1.000000
   1.45585000E-01    1.00000000E+00   1.00000000E+00 
SP   1    1.000000
   4.38000000E-02    1.00000000E+00   1.00000000E+00 
SP   1    1.000000
   1.31927711E-02    1.00000000E+00   1.00000000E+00 
D    1    1.000000
   6.26000000E-01    1.00000000E+00 
****
H    0
S    3    1.000000
   3.38650000E+01    2.54938000E-02 
   5.09479000E+00    1.90373000E-01 
   1.15879000E+00    8.52161000E-01 
S    1    1.000000
   3.25840000E-01    1.00000000E+00 
S    1    1.000000
   1.02741000E-01    1.00000000E+00 
S    1    1.000000
   3.60000000E-02    1.00000000E+00 
P    1    1.000000
   7.50000000E-01    1.00000000E+00 
****
H    0
S    3    1.000000
   3.38650000E+01    2.54938000E-02 
   5.09479000E+00    1.90373000E-01 
   1.15879000E+00    8.52161000E-01 
S    1    1.000000
   3.25840000E-01    1.00000000E+00 
S    1    1.000000
   1.02741000E-01    1.00000000E+00 
S    1    1.000000
   3.60000000E-02    1.00000000E+00 
P    1    1.000000
   7.50000000E-01    1.00000000E+00 
****
H    0
S    3    1.000000
   3.38650000E+01    2.54938000E-02 
   5.09479000E+00    1.90373000E-01 
   1.15879000E+00    8.52161000E-01 
S    1    1.000000
   3.25840000E-01    1.00000000E+00 
S    1    1.000000
   1.02741000E-01    1.00000000E+00 
S    1    1.000000
   3.60000000E-02    1.00000000E+00 
P    1    1.000000
   7.50000000E-01    1.00000000E+00 
****
H    0
S    3    1.000000
   3.38650000E+01    2.54938000E-02 
   5.09479000E+00    1.90373000E-01 
   1.15879000E+00    8.52161000E-01 
S    1    1.000000
   3.25840000E-01    1.00000000E+00 
S    1    1.000000
   1.02741000E-01    1.00000000E+00 
S    1    1.000000
   3.60000000E-02    1.00000000E+00 
P    1    1.000000
   7.50000000E-01    1.00000000E+00 
****
H    0
S    3    1.000000
   3.38650000E+01    2.54938000E-02 
   5.09479000E+00    1.90373000E-01 
   1.15879000E+00    8.52161000E-01 
S    1    1.000000
   3.25840000E-01    1.00000000E+00 
S    1    1.000000
   1.02741000E-01    1.00000000E+00 
S    1    1.000000
   3.60000000E-02    1.00000000E+00 
P    1    1.000000
   7.50000000E-01    1.00000000E+00 
****
$end
-----------------------------------------------------------------------
 There are 120 shells and 320 basis functions
 WARNING: the default MEM_TOTAL is adjusted according to given MEM_STATIC!
 Total memory of 100192 MB is distributed as follows: 
   MEM_STATIC is set to 192 MB
   QALLOC/CCMAN JOB total memory use is  100000 MB
 Warning: actual memory use might exceed 100192 MB

 Total QAlloc Memory Limit 100192 MB
 Mega-Array Size       188 MB
 MEM_STATIC part       192 MB

                       Distance Matrix (Angstroms)
             N (  1)   N (  2)   N (  3)   N (  4)   N (  5)   C (  6)
   N (  2)  2.404936
   N (  3)  3.702352  3.577758
   N (  4)  4.009760  2.441443  2.239890
   N (  5)  2.317237  4.162952  3.068189  4.602761
   C (  6)  1.338547  1.330732  4.014399  3.538156  3.534792
   C (  7)  2.659197  1.333657  2.290641  1.374270  3.636739  2.201115
   C (  8)  2.360667  2.437649  1.381818  2.188912  2.414306  2.655314
   C (  9)  1.339260  2.814604  2.554076  3.503779  1.349126  2.303720
   C ( 10)  4.418607  3.513820  1.305509  1.376012  4.278507  4.343693
   H ( 11)  4.769077  2.807113  3.201976  1.005301  5.579009  4.071928
   H ( 12)  5.492071  4.498182  2.118070  2.146101  5.185745  5.402113
   H ( 13)  2.051389  2.052142  5.097077  4.459217  4.367818  1.083406
   H ( 14)  3.228685  4.769285  2.795853  4.711624  1.002594  4.346110
   H ( 15)  2.506198  4.711937  4.067797  5.490088  1.003100  3.838006
             C (  7)   C (  8)   C (  9)   C ( 10)   H ( 11)   H ( 12)
   C (  8)  1.393251
   C (  9)  2.374517  1.406318
   C ( 10)  2.207165  2.120753  3.512481
   H ( 11)  2.125806  3.167153  4.426786  2.140828
   H ( 12)  3.232188  3.171644  4.540522  1.077457  2.552674
   H ( 13)  3.188354  3.738244  3.258932  5.375759  4.851929  6.418557
   H ( 14)  3.995941  2.627476  2.046976  4.094247  5.715832  4.858963
   H ( 15)  4.410592  3.312311  2.036095  5.259923  6.441018  6.183961
             H ( 13)   H ( 14)
   H ( 14)  5.257120
   H ( 15)  4.479284  1.741596

 A cutoff of  1.0D-14 yielded   6187 shell pairs
 There are     48459 function pairs (     51588 Cartesian)
 Smallest overlap matrix eigenvalue = 2.12E-08
 Linear dependence detected in AO basis
 Tighter screening thresholds may be required for diffuse basis sets
 Use S2THRESH > 14 and THRESH = 14 in case of SCF convergence issues
 Number of orthogonalized atomic orbitals = 317
 Maximum deviation from orthogonality = 1.309E-10

 Scale SEOQF with 1.000000e-01/1.000000e-01/1.000000e-01

 Standard Electronic Orientation quadrupole field applied
 Nucleus-field energy     =     0.0000000146 hartrees
 Guess MOs from core Hamiltonian diagonalization

 -----------------------------------------------------------------------
  General SCF calculation program by
  Eric Jon Sundstrom, Paul Horn, Yuezhi Mao, Dmitri Zuev, Alec White,
  David Stuck, Shaama M.S., Shane Yost, Joonho Lee, David Small,
  Daniel Levine, Susi Lehtola, Hugh Burton, Evgeny Epifanovsky
 -----------------------------------------------------------------------
 Hartree-Fock
 using 4 threads for integral computing
 -------------------------------------------------------
 OpenMP Integral computing Module                
 Release: version 2.0, May 2017, Q-Chem Inc. Pleasanton 
 -------------------------------------------------------
 A restricted SCF calculation will be
 performed using DIIS
 SCF converges when DIIS error is below 1.0e-08
 ---------------------------------------
  Cycle       Energy         DIIS error
 ---------------------------------------
    1    -354.1739785023      9.92e-02  
    2    -304.2784815738      6.39e-02  
    3    -392.7570600916      5.86e-02  
    4    -426.2011979289      4.72e-02  
    5    -447.8002345494      2.96e-02  
    6    -455.7362778241      2.18e-02  
    7    -463.4635916993      9.26e-03  
    8    -464.5786831369      2.16e-03  
    9    -464.6286044942      6.28e-04  
   10    -464.6351268006      2.54e-04  
   11    -464.6365409079      7.42e-05  
   12    -464.6367531718      2.86e-05  
   13    -464.6367946644      1.78e-05  
   14    -464.6368064833      6.84e-06  
   15    -464.6368091795      2.58e-06  
   16    -464.6368094733      9.85e-07  
   17    -464.6368095062      3.56e-07  
   18    -464.6368095091      1.52e-07  
   19    -464.6368095097      5.33e-08  
   20    -464.6368095098      1.85e-08  
   21    -464.6368095098      7.61e-09  Convergence criterion met
 ---------------------------------------
 SCF time:   CPU 337.83s  wall 89.00s 
 SCF   energy in the final basis set =     -464.6368095098
 Total energy in the final basis set =     -464.6368095098


 ------------------------------------------------------------------------------

   CCMAN2: suite of methods based on coupled cluster
           and equation of motion theories.

   Components:
   * libvmm-1.3-trunk
     by Evgeny Epifanovsky, Ilya Kaliman.
   * libtensor-2.5-trunk
     by Evgeny Epifanovsky, Michael Wormit, Dmitry Zuev, Sam Manzer, 
        Ilya Kaliman.
   * libcc-2.5-trunk
     by Evgeny Epifanovsky, Arik Landau, Tomasz Kus, Kirill Khistyaev, 
        Dmitry Zuev, Prashant Manohar, Xintian Feng, Anna Krylov, 
        Matthew Goldey, Alec White, Thomas Jagau, Kaushik Nanda, 
        Anastasia Gunina, Alexander Kunitsa, Joonho Lee.

   CCMAN original authors:
   Anna I. Krylov, C. David Sherrill, Steven R. Gwaltney,
   Edward F. C. Byrd (2000)
   Sergey V. Levchenko, Lyudmila V. Slipchenko, Tao Wang,
   Ana-Maria C. Cristian (2003)
   Piotr A. Pieniazek, C. Melania Oana, Evgeny Epifanovsky (2007)
   Prashant Manohar (2009)

 ------------------------------------------------------------------------------


 Allocating and initializing 100000MB of RAM...
 Calculation will run on 4 cores.


 Alpha MOs, Restricted
 -- Occupied --                  
-15.634 -15.587 -15.572 -15.559 -15.552 -11.342 -11.327 -11.321
  1 A'    2 A'    3 A'    4 A'    5 A'    6 A'    7 A'    8 A'                 
-11.313 -11.256  -1.374  -1.307  -1.253  -1.192  -1.157  -1.040
  9 A'   10 A'   11 A'   12 A'   13 A'   14 A'   15 A'   16 A'                 
 -0.901  -0.882  -0.849  -0.785  -0.745  -0.703  -0.683  -0.641
 17 A'   18 A'   19 A'   20 A'   21 A'   22 A'   23 A'    1 A"                 
 -0.639  -0.619  -0.597  -0.561  -0.500  -0.497  -0.452  -0.426
 24 A'   25 A'   26 A'    2 A"    3 A"   27 A'   28 A'    4 A"                 
 -0.411  -0.375  -0.312
 29 A'    5 A"    6 A"                                                         
 -- Virtual --                   
  0.010   0.016   0.021   0.024   0.028   0.029   0.033   0.036
 30 A'   31 A'   32 A'    7 A"   33 A'   34 A'    8 A"    9 A"                 
  0.037   0.041   0.042   0.049   0.052   0.052   0.055   0.057
 35 A'   36 A'   37 A'   38 A'   10 A"   39 A'   40 A'   11 A"                 
  0.059   0.061   0.065   0.071   0.080   0.081   0.082   0.082
 41 A'   42 A'   43 A'   44 A'   45 A'   12 A"   13 A"   46 A'                 
  0.091   0.091   0.092   0.099   0.100   0.102   0.103   0.104
 14 A"   47 A'   48 A'   49 A'   15 A"   50 A'   16 A"   51 A'                 
  0.107   0.112   0.116   0.118   0.123   0.131   0.138   0.141
 52 A'   53 A'   17 A"   54 A'   55 A'   56 A'   57 A'   18 A"                 
  0.149   0.150   0.159   0.164   0.180   0.199   0.203   0.210
 58 A'   59 A'   60 A'   19 A"   61 A'   62 A'   63 A'   20 A"                 
  0.212   0.215   0.222   0.226   0.226   0.231   0.233   0.234
 64 A'   65 A'   21 A"   66 A'   22 A"   67 A'   23 A"   68 A'                 
  0.239   0.242   0.248   0.262   0.268   0.284   0.287   0.293
 69 A'   24 A"   70 A'   71 A'   72 A'   73 A'   74 A'   25 A"                 
  0.303   0.309   0.323   0.333   0.335   0.339   0.339   0.346
 26 A"   75 A'   76 A'   77 A'   27 A"   78 A'   28 A"   79 A'                 
  0.351   0.364   0.368   0.371   0.385   0.390   0.401   0.414
 80 A'   81 A'   29 A"   82 A'   83 A'   84 A'   85 A'   86 A'                 
  0.416   0.420   0.429   0.439   0.457   0.460   0.472   0.474
 30 A"   87 A'   88 A'   89 A'   90 A'   91 A'   92 A'   93 A'                 
  0.477   0.494   0.504   0.518   0.536   0.550   0.575   0.587
 94 A'   95 A'   96 A'   97 A'   98 A'   99 A'  100 A'  101 A'                 
  0.614   0.646   0.664   0.692   0.725   0.771   0.775   0.775
102 A'  103 A'  104 A'  105 A'  106 A'  107 A'  108 A'   31 A"                 
  0.787   0.805   0.813   0.821   0.834   0.870   0.889   0.916
 32 A"  109 A'   33 A"   34 A"  110 A'   35 A"  111 A'  112 A'                 
  0.937   0.961   0.984   1.001   1.031   1.040   1.056   1.063
113 A'  114 A'  115 A'  116 A'  117 A'  118 A'  119 A'   36 A"                 
  1.078   1.103   1.113   1.118   1.128   1.133   1.136   1.140
 37 A"  120 A'  121 A'  122 A'  123 A'  124 A'   38 A"   39 A"                 
  1.151   1.158   1.188   1.189   1.207   1.226   1.237   1.240
125 A'  126 A'  127 A'  128 A'   40 A"  129 A'  130 A'   41 A"                 
  1.256   1.283   1.299   1.304   1.316   1.349   1.368   1.405
131 A'  132 A'  133 A'   42 A"  134 A'  135 A'   43 A"  136 A'                 
  1.407   1.414   1.450   1.457   1.485   1.522   1.540   1.577
 44 A"   45 A"   46 A"  137 A'   47 A"  138 A'  139 A'   48 A"                 
  1.641   1.648   1.657   1.746   1.765   1.782   1.833   1.879
140 A'   49 A"  141 A'  142 A'  143 A'  144 A'  145 A'  146 A'                 
  1.888   1.939   1.949   1.976   2.004   2.017   2.020   2.054
 50 A"  147 A'   51 A"  148 A'  149 A'   52 A"  150 A'  151 A'                 
  2.084   2.085   2.121   2.137   2.154   2.196   2.225   2.236
 53 A"  152 A'  153 A'   54 A"  154 A'  155 A'   55 A"  156 A'                 
  2.301   2.333   2.456   2.477   2.488   2.489   2.516   2.564
157 A'  158 A'  159 A'  160 A'  161 A'   56 A"  162 A'   57 A"                 
  2.598   2.609   2.620   2.656   2.728   2.743   2.801   2.863
 58 A"  163 A'  164 A'   59 A"  165 A'   60 A"   61 A"   62 A"                 
  2.884   2.902   2.905   2.943   2.980   2.994   2.998   3.023
166 A'  167 A'   63 A"  168 A'  169 A'  170 A'   64 A"  171 A'                 
  3.075   3.115   3.120   3.146   3.179   3.206   3.213   3.225
172 A'   65 A"  173 A'  174 A'  175 A'  176 A'  177 A'   66 A"                 
  3.244   3.271   3.280   3.283   3.293   3.317   3.373   3.389
178 A'   67 A"   68 A"  179 A'   69 A"  180 A'  181 A'  182 A'                 
  3.396   3.468   3.514   3.697   3.737   3.811   3.897   3.927
 70 A"  183 A'  184 A'  185 A'  186 A'  187 A'  188 A'  189 A'                 
  3.970   4.024   4.079   4.107   4.150   4.192   4.303   4.340
190 A'  191 A'  192 A'  193 A'  194 A'  195 A'  196 A'   71 A"                 
  4.362   4.423   4.439   4.461   4.578   4.858   4.984   5.042
 72 A"   73 A"   74 A"   75 A"  197 A'  198 A'  199 A'  200 A'                 
  5.194   5.293   5.366   5.502   5.611   5.771   5.857   7.553
201 A'  202 A'  203 A'  204 A'  205 A'  206 A'  207 A'  208 A'                 
  7.696   7.788   7.891   7.925  24.935  25.086  25.123  25.137
209 A'  210 A'  211 A'  212 A'  213 A'  214 A'  215 A'  216 A'                 
 25.249  30.168  30.216  30.275  30.386  30.399 116.290 116.338
217 A'  218 A'  219 A'  220 A'  221 A'  222 A'  223 A'  224 A'                 
116.385 116.476 116.490 460.401 460.445 460.489 460.561 460.575
225 A'  226 A'  227 A'  228 A'  229 A'  230 A'  231 A'  232 A'                 
*******2012.9252012.9682013.0262013.039************************
233 A'  234 A'  235 A'  236 A'  237 A'  238 A'  239 A'  240 A'                 
***************
241 A'  242 A'                                                                 

 Beta MOs, Restricted
 -- Occupied --                  
-15.634 -15.587 -15.572 -15.559 -15.552 -11.342 -11.327 -11.321
  1 A'    2 A'    3 A'    4 A'    5 A'    6 A'    7 A'    8 A'                 
-11.313 -11.256  -1.374  -1.307  -1.253  -1.192  -1.157  -1.040
  9 A'   10 A'   11 A'   12 A'   13 A'   14 A'   15 A'   16 A'                 
 -0.901  -0.882  -0.849  -0.785  -0.745  -0.703  -0.683  -0.641
 17 A'   18 A'   19 A'   20 A'   21 A'   22 A'   23 A'    1 A"                 
 -0.639  -0.619  -0.597  -0.561  -0.500  -0.497  -0.452  -0.426
 24 A'   25 A'   26 A'    2 A"    3 A"   27 A'   28 A'    4 A"                 
 -0.411  -0.375  -0.312
 29 A'    5 A"    6 A"                                                         
 -- Virtual --                   
  0.010   0.016   0.021   0.024   0.028   0.029   0.033   0.036
 30 A'   31 A'   32 A'    7 A"   33 A'   34 A'    8 A"    9 A"                 
  0.037   0.041   0.042   0.049   0.052   0.052   0.055   0.057
 35 A'   36 A'   37 A'   38 A'   10 A"   39 A'   40 A'   11 A"                 
  0.059   0.061   0.065   0.071   0.080   0.081   0.082   0.082
 41 A'   42 A'   43 A'   44 A'   45 A'   12 A"   13 A"   46 A'                 
  0.091   0.091   0.092   0.099   0.100   0.102   0.103   0.104
 14 A"   47 A'   48 A'   49 A'   15 A"   50 A'   16 A"   51 A'                 
  0.107   0.112   0.116   0.118   0.123   0.131   0.138   0.141
 52 A'   53 A'   17 A"   54 A'   55 A'   56 A'   57 A'   18 A"                 
  0.149   0.150   0.159   0.164   0.180   0.199   0.203   0.210
 58 A'   59 A'   60 A'   19 A"   61 A'   62 A'   63 A'   20 A"                 
  0.212   0.215   0.222   0.226   0.226   0.231   0.233   0.234
 64 A'   65 A'   21 A"   66 A'   22 A"   67 A'   23 A"   68 A'                 
  0.239   0.242   0.248   0.262   0.268   0.284   0.287   0.293
 69 A'   24 A"   70 A'   71 A'   72 A'   73 A'   74 A'   25 A"                 
  0.303   0.309   0.323   0.333   0.335   0.339   0.339   0.346
 26 A"   75 A'   76 A'   77 A'   27 A"   78 A'   28 A"   79 A'                 
  0.351   0.364   0.368   0.371   0.385   0.390   0.401   0.414
 80 A'   81 A'   29 A"   82 A'   83 A'   84 A'   85 A'   86 A'                 
  0.416   0.420   0.429   0.439   0.457   0.460   0.472   0.474
 30 A"   87 A'   88 A'   89 A'   90 A'   91 A'   92 A'   93 A'                 
  0.477   0.494   0.504   0.518   0.536   0.550   0.575   0.587
 94 A'   95 A'   96 A'   97 A'   98 A'   99 A'  100 A'  101 A'                 
  0.614   0.646   0.664   0.692   0.725   0.771   0.775   0.775
102 A'  103 A'  104 A'  105 A'  106 A'  107 A'  108 A'   31 A"                 
  0.787   0.805   0.813   0.821   0.834   0.870   0.889   0.916
 32 A"  109 A'   33 A"   34 A"  110 A'   35 A"  111 A'  112 A'                 
  0.937   0.961   0.984   1.001   1.031   1.040   1.056   1.063
113 A'  114 A'  115 A'  116 A'  117 A'  118 A'  119 A'   36 A"                 
  1.078   1.103   1.113   1.118   1.128   1.133   1.136   1.140
 37 A"  120 A'  121 A'  122 A'  123 A'  124 A'   38 A"   39 A"                 
  1.151   1.158   1.188   1.189   1.207   1.226   1.237   1.240
125 A'  126 A'  127 A'  128 A'   40 A"  129 A'  130 A'   41 A"                 
  1.256   1.283   1.299   1.304   1.316   1.349   1.368   1.405
131 A'  132 A'  133 A'   42 A"  134 A'  135 A'   43 A"  136 A'                 
  1.407   1.414   1.450   1.457   1.485   1.522   1.540   1.577
 44 A"   45 A"   46 A"  137 A'   47 A"  138 A'  139 A'   48 A"                 
  1.641   1.648   1.657   1.746   1.765   1.782   1.833   1.879
140 A'   49 A"  141 A'  142 A'  143 A'  144 A'  145 A'  146 A'                 
  1.888   1.939   1.949   1.976   2.004   2.017   2.020   2.054
 50 A"  147 A'   51 A"  148 A'  149 A'   52 A"  150 A'  151 A'                 
  2.084   2.085   2.121   2.137   2.154   2.196   2.225   2.236
 53 A"  152 A'  153 A'   54 A"  154 A'  155 A'   55 A"  156 A'                 
  2.301   2.333   2.456   2.477   2.488   2.489   2.516   2.564
157 A'  158 A'  159 A'  160 A'  161 A'   56 A"  162 A'   57 A"                 
  2.598   2.609   2.620   2.656   2.728   2.743   2.801   2.863
 58 A"  163 A'  164 A'   59 A"  165 A'   60 A"   61 A"   62 A"                 
  2.884   2.902   2.905   2.943   2.980   2.994   2.998   3.023
166 A'  167 A'   63 A"  168 A'  169 A'  170 A'   64 A"  171 A'                 
  3.075   3.115   3.120   3.146   3.179   3.206   3.213   3.225
172 A'   65 A"  173 A'  174 A'  175 A'  176 A'  177 A'   66 A"                 
  3.244   3.271   3.280   3.283   3.293   3.317   3.373   3.389
178 A'   67 A"   68 A"  179 A'   69 A"  180 A'  181 A'  182 A'                 
  3.396   3.468   3.514   3.697   3.737   3.811   3.897   3.927
 70 A"  183 A'  184 A'  185 A'  186 A'  187 A'  188 A'  189 A'                 
  3.970   4.024   4.079   4.107   4.150   4.192   4.303   4.340
190 A'  191 A'  192 A'  193 A'  194 A'  195 A'  196 A'   71 A"                 
  4.362   4.423   4.439   4.461   4.578   4.858   4.984   5.042
 72 A"   73 A"   74 A"   75 A"  197 A'  198 A'  199 A'  200 A'                 
  5.194   5.293   5.366   5.502   5.611   5.771   5.857   7.553
201 A'  202 A'  203 A'  204 A'  205 A'  206 A'  207 A'  208 A'                 
  7.696   7.788   7.891   7.925  24.935  25.086  25.123  25.137
209 A'  210 A'  211 A'  212 A'  213 A'  214 A'  215 A'  216 A'                 
 25.249  30.168  30.216  30.275  30.386  30.399 116.290 116.338
217 A'  218 A'  219 A'  220 A'  221 A'  222 A'  223 A'  224 A'                 
116.385 116.476 116.490 460.401 460.445 460.489 460.561 460.575
225 A'  226 A'  227 A'  228 A'  229 A'  230 A'  231 A'  232 A'                 
*******2012.9252012.9682013.0262013.039************************
233 A'  234 A'  235 A'  236 A'  237 A'  238 A'  239 A'  240 A'                 
***************
241 A'  242 A'                                                                 

 Occupation and symmetry of molecular orbitals

 Point group: Cs (2 irreducible representations).

                           A'   A"    All 
 ------------------------------------------
 All molecular orbitals:
  - Alpha                  242  75    317 
  - Beta                   242  75    317 
 ------------------------------------------
 Alpha orbitals:
  - Frozen occupied        5    0     5   
  - Active occupied        24   6     30  
  - Active virtual         213  69    282 
  - Frozen virtual         0    0     0   
 ------------------------------------------
 Beta orbitals:
  - Frozen occupied        5    0     5   
  - Active occupied        24   6     30  
  - Active virtual         213  69    282 
  - Frozen virtual         0    0     0   
 ------------------------------------------

 Import integrals:   CPU 0.00 s  wall 0.00 s

 Import integrals:   CPU 1222.35 s  wall 384.95 s

 MP2 amplitudes:   CPU 3.66 s  wall 2.94 s

Running a double precision version
           CCSD T amplitudes will be solved using DIIS.

           Start     Size      MaxIter   EConv     TConv     
           3         7         100       1.00e-06  1.00e-04  
 ------------------------------------------------------------------------------
           Energy (a.u.)   Ediff      Tdiff       Comment
 ------------------------------------------------------------------------------
          -466.27653081                           
     1    -466.23796028   3.86e-02   1.16e+00     Step took 02.26.
     2    -466.29215247   5.42e-02   1.65e-01     
     3    -466.28821969   3.93e-03   6.38e-02     
     4    -466.29312498   4.91e-03   2.24e-02     Switched to DIIS steps.
     5    -466.29489154   1.77e-03   1.34e-02     
     6    -466.29503966   1.48e-04   3.41e-03     
     7    -466.29504428   4.61e-06   1.62e-03     
     8    -466.29504659   2.31e-06   5.10e-04     
     9    -466.29505162   5.03e-06   2.73e-04     
    10    -466.29505219   5.70e-07   9.47e-05     
 ------------------------------------------------------------------------------
          -466.29505219                           CCSD T converged.

End of double precision
 SCF energy                 = -464.63680951
 MP2 energy                 = -466.27653081
 CCSD correlation energy    =   -1.65824268
 CCSD total energy          = -466.29505219

 CCSD  T1^2 = 0.0261  T2^2 = 0.5288  Leading amplitudes:

 Amplitude    Orbitals with energies
 -0.0296       3 (A") A                  ->    17 (A") A                  
              -0.5003                          0.1164                     
 -0.0296       3 (A") B                  ->    17 (A") B                  
              -0.5003                          0.1164                     
  0.0250       5 (A") A                  ->    18 (A") A                  
              -0.3751                          0.1414                     
  0.0250       5 (A") B                  ->    18 (A") B                  
              -0.3751                          0.1414                     

 Amplitude    Orbitals with energies
 -0.0408       5 (A") A      5 (A") B    ->    18 (A") A     18 (A") B    
              -0.3751       -0.3751            0.1414        0.1414       
  0.0408       5 (A") A      5 (A") B    ->    18 (A") B     18 (A") A    
              -0.3751       -0.3751            0.1414        0.1414       
  0.0408       5 (A") B      5 (A") A    ->    18 (A") A     18 (A") B    
              -0.3751       -0.3751            0.1414        0.1414       
 -0.0408       5 (A") B      5 (A") A    ->    18 (A") B     18 (A") A    
              -0.3751       -0.3751            0.1414        0.1414       

 Computing CCSD intermediates for later calculations in double precision
 Finished.

Running a double precision version
           CCSD Lambda amplitudes will be solved using DIIS.
           Start     Size      MaxIter   EConv     LConv     
           3         7         100       1.00e-06  1.00e-04  
 ------------------------------------------------------------------------------
            Enorm      Ldiff       Comment
 ------------------------------------------------------------------------------
     1     6.88e-02   5.26e-02     
     2     1.48e-02   3.40e-03     
     3     6.02e-03   2.26e-03     
     4     3.04e-03   8.59e-04     Switched to DIIS steps.
     5     9.61e-04   5.63e-04     
     6     4.35e-04   1.60e-04     
     7     1.34e-04   3.83e-05     
     8     6.27e-05   2.99e-06     
     9     2.18e-05   1.80e-08     
    10     1.00e-05   1.21e-07     
    11     4.50e-06   7.09e-08     
    12     1.65e-06   6.18e-08     
    13     7.30e-07   4.92e-08     
 ------------------------------------------------------------------------------
                                   CCSD Lambda converged.

 CCSD calculation:   CPU 11638.83 s  wall 3019.34 s

        Solving for CVS-EOMIP-CCSD A' transitions.

Running a double precision version
      CVS-EOMIP-CCSD/MP2 right amplitudes will be solved using Davidson.
        Amplitudes will be solved using standard  algorithm.
     Hard-coded thresholds: 
     LinDepThresh=1.00e-15  NormThresh=1.00e-06  ReorthogonThresh=1.00e-02

      Roots     MaxVec    MaxIter   Precond   Conv      Shift    
      5         120       60        1         1.00e-05  0.00e+00  
 ------------------------------------------------------------------------------
      Iter ConvRoots NVecs ResNorm Current eigenvalues (eV)
 ------------------------------------------------------------------------------
      0    0      5     1.42e+00   423.1448   423.3266   423.5977   424.0078   425.2948   
      1    0      10    3.48e+00   419.9579   420.1455   420.4357   420.8154   422.0649   
      2    0      15    6.68e-02   405.9485   406.1470   406.4574   407.2765   408.2366   
      3    0      20    3.28e-03   405.3954   405.5736   405.9165   406.7157   407.7238   
      4    0      25    1.56e-04   405.3785   405.5579   405.8991   406.7074   407.7139   
      5    0      30    2.33e-05   405.3727   405.5528   405.8929   406.7048   407.7118   
      6    5      35    8.29e-07   405.3727*  405.5529*  405.8931*  406.7048*  407.7120*  

     Davidson procedure converged

 EOMIP transition 1/A'
 Total energy = -451.39787744 a.u.  Excitation energy = 405.3727 eV.
 R1^2 = 0.8951  R2_CCVV^2 = 0.0013  R2_COVV^2 = 0.1042  Res^2 = 1.25e-06
 Conv-d = yes

 Amplitude    Transitions between orbitals
 -0.9461       5 (A') A                  ->    infty        
  0.0016       4 (A') A                  ->    infty        

              Summary of significant orbitals:

               Number  Type             Irrep      Energy
               4       Occ  Alpha       4 (A')    -15.5589
               5       Occ  Alpha       5 (A')    -15.5522


 EOMIP transition 2/A'
 Total energy = -451.39125550 a.u.  Excitation energy = 405.5529 eV.
 R1^2 = 0.8944  R2_CCVV^2 = 0.0013  R2_COVV^2 = 0.1049  Res^2 = 1.01e-06
 Conv-d = yes

 Amplitude    Transitions between orbitals
 -0.9457       4 (A') A                  ->    infty        
 -0.0016       5 (A') A                  ->    infty        
  0.0001       3 (A') A                  ->    infty        

              Summary of significant orbitals:

               Number  Type             Irrep      Energy
               3       Occ  Alpha       3 (A')    -15.5718
               4       Occ  Alpha       4 (A')    -15.5589
               5       Occ  Alpha       5 (A')    -15.5522


 EOMIP transition 3/A'
 Total energy = -451.37875509 a.u.  Excitation energy = 405.8931 eV.
 R1^2 = 0.8947  R2_CCVV^2 = 0.0013  R2_COVV^2 = 0.1046  Res^2 = 1.27e-06
 Conv-d = yes

 Amplitude    Transitions between orbitals
  0.9459       3 (A') A                  ->    infty        
 -0.0002       1 (A') A                  ->    infty        
  0.0001       4 (A') A                  ->    infty        

              Summary of significant orbitals:

               Number  Type             Irrep      Energy
               1       Occ  Alpha       1 (A')    -15.6340
               3       Occ  Alpha       3 (A')    -15.5718
               4       Occ  Alpha       4 (A')    -15.5589


 EOMIP transition 4/A'
 Total energy = -451.34892642 a.u.  Excitation energy = 406.7048 eV.
 R1^2 = 0.9008  R2_CCVV^2 = 0.0013  R2_COVV^2 = 0.0985  Res^2 = 3.48e-07
 Conv-d = yes

 Amplitude    Transitions between orbitals
 -0.9491       2 (A') A                  ->    infty        

              Summary of significant orbitals:

               Number  Type             Irrep      Energy
               2       Occ  Alpha       2 (A')    -15.5865


 EOMIP transition 5/A'
 Total energy = -451.31191281 a.u.  Excitation energy = 407.7120 eV.
 R1^2 = 0.8994  R2_CCVV^2 = 0.0013  R2_COVV^2 = 0.0999  Res^2 = 2.69e-07
 Conv-d = yes

 Amplitude    Transitions between orbitals
  0.9484       1 (A') A                  ->    infty        
  0.0002       3 (A') A                  ->    infty        

              Summary of significant orbitals:

               Number  Type             Irrep      Energy
               1       Occ  Alpha       1 (A')    -15.6340
               3       Occ  Alpha       3 (A')    -15.5718


Running a double precision version
      CVS-EOMIP-CCSD/MP2 left amplitudes will be solved using Davidson.
        Amplitudes will be solved using MOM  algorithm.
     Hard-coded thresholds: 
     LinDepThresh=1.00e-15  NormThresh=1.00e-06  ReorthogonThresh=1.00e-02

      Roots     MaxVec    MaxIter   Precond   Conv      Shift    
      5         120       60        1         1.00e-05  0.00e+00  
 ------------------------------------------------------------------------------
      Iter ConvRoots NVecs ResNorm Current eigenvalues (eV)
 ------------------------------------------------------------------------------
      0    0      5     3.76e-02   406.7767   406.9566   407.2861   407.9977   409.0619   
      1    0      10    4.14e-01   405.3606   405.5384   405.8746   406.6771   407.6899   
      2    0      15    1.18e-02   405.3792   405.5605   405.9024   406.7076   407.7163   
      3    1      20    3.59e-04   405.3748   405.5549   405.8946   406.7061*  407.7132   
      4    2      24    1.20e-05   405.3723   405.5526   405.8926   406.7061*  407.7118*  
      5    4      27    7.47e-06   405.3727*  405.5530*  405.8931   406.7061*  407.7118*  
      6    5      28    4.96e-06   405.3727*  405.5530*  405.8931*  406.7061*  407.7118*  

     Davidson procedure converged

 CVS-EOMIP-CCSD calculation:   CPU 127.73 s  wall 55.93 s


 Reference -- EOM-IP-CCSD state  1/A'   transition
 Energy difference = 405.3727 eV.

 Left Dyson orbital norm is 0.921175

Left alpha Dyson orbital in the MO basis (canonical Q-Chem's ordering):
0     5.1722e-06
1     8.8427e-05
2     -3.1581e-05
3     1.6561e-03
4     -1.0000e+00
5     -2.8696e-16
6     -2.3482e-16
7     1.0917e-16
8     1.5392e-16
9     -1.5800e-17
10    -3.4749e-16
11    -2.6813e-17
12    1.8176e-16
13    -6.4285e-17
14    4.8902e-16
15    2.5626e-16
16    4.9743e-16
17    -1.6539e-16
18    2.2761e-16
19    -4.9117e-16
20    -4.6480e-17
21    -3.5061e-16
22    -4.1139e-16
23    5.4788e-17
24    -1.8346e-16
25    1.2268e-16
26    -3.2763e-17
27    -1.3185e-16
28    2.2772e-16
29    1.7986e-16
30    -7.0886e-18
31    -8.2424e-17
32    2.8369e-16
33    -3.1964e-17
34    1.6932e-16
35    3.5065e-16
36    -5.7870e-16
37    8.4389e-16
38    -1.1288e-15
39    7.2996e-15
40    -8.0883e-15
41    -2.0435e-16
42    9.2244e-16
43    -9.5289e-16
44    1.8388e-15
45    -1.1915e-15
46    -1.5659e-15
47    2.8033e-15
48    -4.4126e-15
49    7.1430e-15
50    -2.2282e-15
51    2.6861e-14
52    6.1968e-16
53    2.6874e-14
54    1.6649e-15
55    4.0019e-15
56    -1.1656e-15
57    2.5915e-16
58    1.6601e-15
59    1.6182e-15
60    -4.9645e-15
61    -5.0172e-15
62    1.5562e-14
63    2.4670e-16
64    -1.2541e-15
65    3.3262e-15
66    -7.6289e-15
67    -3.9322e-15
68    -9.9404e-15
69    1.0132e-15
70    4.5839e-16
71    -4.2534e-15
72    2.1141e-14
73    3.5432e-14
74    3.8974e-16
75    -2.6898e-15
76    -6.7804e-16
77    -1.4231e-14
78    -1.3641e-16
79    9.0032e-15
80    1.6197e-14
81    1.6846e-14
82    -3.5112e-15
83    -6.8022e-15
84    1.9648e-15
85    -1.3382e-15
86    -9.2074e-15
87    -2.8176e-15
88    -6.7481e-15
89    -2.0632e-16
90    -8.0022e-16
91    -7.8311e-15
92    2.6604e-15
93    6.1128e-15
94    -3.3702e-15
95    2.9841e-14
96    -1.0562e-14
97    -1.7312e-14
98    -1.0183e-15
99    9.9907e-16
100   -4.1383e-15
101   6.1524e-15
102   -1.5076e-14
103   -2.7330e-15
104   3.2833e-15
105   1.5868e-15
106   6.7640e-15
107   -1.7025e-14
108   1.3654e-15
109   -3.3316e-15
110   8.5344e-15
111   1.0012e-14
112   1.0241e-14
113   6.3777e-15
114   -1.3218e-14
115   -5.6964e-15
116   -1.7799e-14
117   -3.4451e-14
118   -1.1658e-14
119   -1.2034e-14
120   -4.9599e-15
121   5.5810e-15
122   -3.7817e-15
123   1.3025e-14
124   -3.7394e-15
125   -7.0299e-15
126   1.0582e-14
127   -5.7704e-15
128   -3.2165e-15
129   1.2213e-14
130   -3.3425e-16
131   1.8175e-15
132   4.2546e-15
133   3.3817e-15
134   -8.9123e-15
135   1.6906e-15
136   8.8533e-15
137   2.4811e-15
138   4.1790e-16
139   -6.1269e-16
140   -1.2721e-16
141   -8.0321e-16
142   2.9990e-17
143   -1.3559e-14
144   -3.4629e-17
145   3.0384e-15
146   3.6345e-15
147   -3.7379e-15
148   -1.9092e-15
149   -5.0899e-15
150   1.2133e-14
151   4.2996e-15
152   -3.7763e-15
153   1.7696e-15
154   -6.1666e-16
155   -7.2020e-16
156   1.3423e-15
157   8.2845e-16
158   5.5519e-15
159   4.2229e-16
160   -1.6779e-16
161   -8.8120e-16
162   8.7131e-16
163   9.6722e-15
164   6.7603e-15
165   -2.4909e-15
166   -1.2168e-14
167   3.1423e-15
168   1.8987e-15
169   9.9980e-15
170   9.9623e-16
171   3.0163e-15
172   -1.1067e-16
173   -1.1507e-15
174   -1.2120e-15
175   -5.6027e-15
176   3.5581e-15
177   2.3533e-16
178   1.8641e-15
179   4.2159e-16
180   -4.2104e-17
181   1.4369e-16
182   -4.7568e-15
183   7.8620e-16
184   1.8124e-15
185   2.2280e-15
186   -6.6514e-16
187   -4.5847e-15
188   -2.3857e-16
189   -8.4287e-15
190   5.5563e-15
191   -2.9161e-15
192   -2.4514e-15
193   -1.3893e-15
194   3.2624e-15
195   4.8592e-16
196   -2.2869e-15
197   -2.5791e-16
198   7.3745e-16
199   -4.0728e-15
200   -2.8963e-16
201   4.8445e-15
202   -4.2111e-15
203   -3.0096e-16
204   4.1797e-15
205   -5.5588e-15
206   -4.3276e-16
207   -7.8356e-16
208   9.1927e-17
209   -3.5924e-16
210   -2.0537e-15
211   -9.8570e-16
212   2.3164e-16
213   4.0081e-16
214   -9.0134e-16
215   -4.8998e-16
216   2.6959e-16
217   1.7734e-15
218   -9.8246e-18
219   -2.5297e-16
220   -2.0304e-15
221   4.4407e-15
222   3.1515e-17
223   -2.0166e-15
224   1.5775e-16
225   -2.4786e-16
226   -1.4613e-16
227   7.7563e-15
228   -1.2496e-15
229   -6.4647e-16
230   2.8985e-15
231   -1.7734e-15
232   -8.3154e-15
233   2.7338e-16
234   2.7189e-15
235   4.2631e-16
236   -2.7154e-16
237   -8.4525e-15
238   8.3551e-15
239   -2.7218e-15
240   8.6092e-16
241   -5.8300e-16
242   5.4573e-17
243   5.9137e-15
244   -3.1833e-16
245   -7.7411e-16
246   4.4229e-16
247   1.2184e-16
248   -8.2441e-15
249   9.1497e-15
250   -6.8770e-15
251   5.7580e-16
252   -7.1936e-15
253   1.6368e-16
254   4.3474e-15
255   -3.5341e-15
256   4.3310e-15
257   9.8009e-15
258   -6.4341e-15
259   6.4020e-15
260   -1.0825e-15
261   3.1223e-15
262   1.0980e-15
263   1.4677e-15
264   -3.8290e-16
265   -9.2173e-15
266   -9.1508e-17
267   -3.0686e-17
268   -2.5630e-16
269   -2.1569e-16
270   1.1014e-15
271   -3.9516e-15
272   1.6668e-16
273   4.5122e-15
274   3.3221e-15
275   -2.0888e-15
276   6.6992e-16
277   -1.6950e-15
278   -1.5858e-15
279   -1.6076e-15
280   -1.0185e-14
281   -6.5986e-15
282   -1.8714e-16
283   -4.3018e-15
284   -9.0133e-16
285   1.6163e-15
286   -3.6215e-16
287   7.3060e-18
288   1.9117e-15
289   -5.6957e-16
290   4.8980e-16
291   8.9305e-16
292   7.8792e-16
293   3.2024e-15
294   -4.9766e-16
295   -1.4632e-15
296   9.6291e-16
297   -1.1823e-15
298   -2.7077e-15
299   2.1759e-16
300   -4.7100e-16
301   4.3805e-16
302   1.0141e-15
303   1.9435e-15
304   -1.1315e-15
305   2.3266e-17
306   2.2622e-17
307   2.0327e-16
308   4.5316e-16
309   -1.9669e-16
310   -1.0590e-16
311   2.5729e-16
312   -4.8541e-16
313   3.5339e-16
314   -1.0993e-16
315   -2.0458e-16
316   -4.8521e-16

Decomposition over AOs for the left alpha Dyson orbital:
-1.09732461e-03
-8.35471026e-03
-4.09382772e-02
-1.38944000e-01
-3.35997237e-01
-1.43976929e-01
-4.67594057e-01
2.18342563e-03
6.75643280e-05
-6.19556592e-17
-3.89012907e-03
-1.11449474e-03
-6.50091747e-05
3.42987164e-15
2.31487438e-04
6.28696330e-04
7.38314830e-05
-8.22791020e-15
-4.34756717e-03
-1.50546185e-04
3.23581562e-04
5.13613660e-14
-6.06633727e-03
9.18980351e-04
5.79083725e-04
4.55848205e-14
2.68820133e-05
1.05587221e-16
8.68708770e-05
-1.68638494e-16
-8.86835734e-05
-4.32894110e-06
-3.30219254e-05
-1.61359501e-04
-5.49393795e-04
-1.31335732e-03
-5.13702387e-04
-1.88035747e-03
2.43652551e-05
-4.85273285e-06
-6.15974814e-16
-8.38038583e-05
-1.06433725e-04
3.27682459e-05
3.72909795e-15
-3.01989602e-04
-1.91784035e-05
7.61248537e-05
-7.97635152e-15
5.48531601e-06
1.88231236e-04
2.22953878e-04
4.50555111e-14
2.64354747e-03
6.96272709e-04
-3.19325980e-04
3.03579976e-14
3.16917845e-05
6.23322017e-17
2.10660943e-05
-2.27247166e-16
-3.69856446e-05
7.87858873e-08
5.78974130e-07
2.98843637e-06
9.55238492e-06
2.79945093e-05
2.65922504e-05
2.31000080e-05
5.52775818e-06
1.04667442e-06
4.31665218e-17
-2.61385281e-05
-2.81451761e-05
-1.04022874e-05
-2.86677171e-15
-3.24542626e-06
1.33353946e-05
6.74201330e-06
1.18920646e-14
-3.60935129e-05
-1.76139692e-04
8.14425311e-05
-5.10125983e-14
1.14326823e-03
1.19130178e-04
3.97353700e-04
2.24033941e-14
-8.68002030e-06
3.59022469e-16
4.90600780e-06
3.83995923e-17
-8.71190863e-06
1.36085215e-08
8.18850167e-08
5.57982247e-07
1.28543219e-06
8.31162138e-06
2.01499398e-05
-5.86634692e-06
5.01617594e-06
8.82025131e-07
-1.58406548e-16
-3.80956818e-05
-2.65628802e-05
-3.09342822e-06
-5.16289821e-16
1.23233451e-04
1.03406458e-04
-1.12875541e-05
1.42031303e-15
5.84721843e-04
1.10121418e-04
-1.72440067e-05
1.18927252e-14
-5.11628969e-05
-5.02585615e-06
4.28943867e-05
-2.43703995e-14
-3.17173090e-06
-5.60897711e-16
1.90998697e-06
9.07415808e-18
-8.37299901e-06
-4.62810459e-07
-3.55859932e-06
-1.71885939e-05
-5.93159483e-05
-1.35062581e-04
-3.25558399e-05
-2.17200644e-04
-3.23002364e-07
2.36566628e-05
-4.45234763e-17
-3.14903970e-05
1.54664089e-05
-8.10918232e-05
1.20895133e-15
-4.49287930e-06
-1.14505496e-04
-2.07343954e-05
-4.13664781e-15
9.23513376e-04
-5.62567499e-04
-2.26272385e-04
2.67011350e-14
1.72967246e-03
7.89123636e-05
2.72431434e-04
-1.59525930e-14
5.65589936e-06
-2.57012142e-16
1.42237970e-05
-2.70046985e-16
4.94469859e-05
-2.45834997e-05
4.95948271e-05
-1.96204335e-05
3.40408562e-05
-5.15894693e-17
-2.44105258e-04
-2.26142657e-04
5.00983480e-04
3.20372565e-15
3.82607409e-04
1.00389117e-05
-1.79202506e-04
-3.06372950e-15
-4.06549735e-04
8.62025408e-04
7.67668039e-06
-3.40860477e-14
7.32071425e-04
-2.61814151e-04
-1.09393680e-04
-6.77041695e-14
1.77437546e-04
-1.89970919e-16
3.28170671e-05
-2.05120814e-16
2.51994175e-04
-1.59603072e-06
6.86185491e-06
7.94021655e-06
-5.78952061e-06
8.04289691e-17
-4.88984698e-05
-4.91471075e-05
3.76052536e-05
6.19265923e-16
1.33807945e-04
3.24255351e-04
1.29338138e-04
1.24453362e-15
2.05397803e-03
4.31062372e-04
3.83042827e-05
-1.04306351e-13
-1.16640193e-03
-1.64061750e-03
-2.77960563e-04
8.45183116e-14
2.77928003e-05
-9.21898542e-17
-5.28350428e-07
7.96452994e-16
3.01984560e-05
-4.05881879e-06
9.47351127e-06
2.64628950e-05
-7.02808251e-06
3.58656976e-16
-6.72617472e-05
-1.82053145e-04
3.36757394e-05
-4.56329094e-17
2.09775329e-04
2.59573328e-04
-8.20110236e-05
-4.66949707e-15
5.05620561e-03
2.16591260e-03
-1.60349002e-03
1.60934066e-13
-4.78002629e-04
2.23815076e-03
-1.23386930e-04
-1.05199742e-13
3.50665243e-06
3.05692195e-16
2.78790906e-06
8.79958908e-16
-8.39902793e-05
-2.69184675e-05
5.88484450e-05
-2.80785219e-05
-2.52946278e-05
-1.45408610e-16
-2.81318500e-04
-3.19557858e-04
-5.17812024e-04
2.10947252e-15
2.03373693e-04
3.60800317e-04
4.13135676e-04
1.35769215e-15
-3.51804691e-03
3.31597953e-03
2.45285740e-03
-1.29090098e-13
3.70374631e-04
-4.10621449e-04
8.96926705e-04
6.05069569e-14
-2.43499983e-04
4.78847331e-16
5.80629997e-05
3.92369588e-16
2.35214130e-04
-3.72996748e-07
1.26142420e-06
2.02139526e-08
5.68141803e-07
1.16542641e-16
-1.37130297e-05
-2.37377765e-06
-6.93201066e-06
-1.20684100e-15
1.74602762e-05
8.69100868e-05
4.01751209e-05
-1.55042936e-15
-9.62341287e-05
5.32702522e-05
1.35724728e-04
8.74747853e-15
7.79946582e-04
2.16121158e-04
-4.19646466e-04
-6.76631256e-15
9.08754966e-07
-2.47056771e-16
-4.90812677e-06
-8.72085655e-16
2.39914707e-06
-2.46835624e-06
1.76738789e-05
-1.59679999e-05
-7.55038090e-05
-2.05213010e-06
-2.81208428e-06
-4.29029732e-16
-2.95498906e-06
1.31535604e-05
6.95706273e-05
9.77243195e-05
1.89153601e-07
5.76523625e-07
2.63449262e-16
-1.15573583e-05
-1.07508658e-04
6.09420738e-05
-6.29850758e-04
9.31860085e-06
8.55332549e-05
-1.47904662e-16
-3.20792700e-06
-2.65474611e-05
-2.81061533e-04
1.42021972e-04
3.30900657e-07
-1.04766157e-05
-2.99818776e-16
-5.57538471e-06
5.27725602e-05
1.35586594e-04
-2.22449622e-04
3.06213124e-06
1.22238760e-05
1.59918708e-16
   *****

 Right Dyson orbital norm is 0.946330

Right alpha Dyson orbital in the MO basis (canonical Q-Chem's ordering):
0     5.2495e-06
1     9.1256e-05
2     -2.9138e-05
3     1.6577e-03
4     -1.0000e+00
5     -2.8662e-16
6     -2.3489e-16
7     1.0917e-16
8     1.5385e-16
9     -1.5644e-17
10    -3.4597e-16
11    -2.0027e-17
12    1.8133e-16
13    -6.6235e-17
14    4.9247e-16
15    2.5569e-16
16    4.9736e-16
17    -1.6558e-16
18    2.2767e-16
19    -4.9144e-16
20    -4.6533e-17
21    -3.5075e-16
22    -4.1056e-16
23    5.4787e-17
24    -1.8311e-16
25    1.2233e-16
26    -3.3722e-17
27    -1.3185e-16
28    2.2772e-16
29    1.8075e-16
30    -8.8379e-18
31    -8.2425e-17
32    2.8321e-16
33    -3.1963e-17
34    1.6932e-16
35    3.5110e-16
36    -5.7935e-16
37    8.4447e-16
38    -1.1288e-15
39    7.2996e-15
40    -8.0882e-15
41    -2.0433e-16
42    9.2241e-16
43    -9.5261e-16
44    1.8389e-15
45    -1.1915e-15
46    -1.5652e-15
47    2.8032e-15
48    -4.4128e-15
49    7.1439e-15
50    -2.2283e-15
51    2.6862e-14
52    6.1827e-16
53    2.6874e-14
54    1.6645e-15
55    4.0006e-15
56    -1.1656e-15
57    2.5915e-16
58    1.6596e-15
59    1.6182e-15
60    -4.9653e-15
61    -5.0170e-15
62    1.5562e-14
63    2.4670e-16
64    -1.2540e-15
65    3.3261e-15
66    -7.6296e-15
67    -3.9321e-15
68    -9.9407e-15
69    1.0132e-15
70    4.5770e-16
71    -4.2532e-15
72    2.1140e-14
73    3.5432e-14
74    3.8973e-16
75    -2.6893e-15
76    -6.7802e-16
77    -1.4231e-14
78    -1.3640e-16
79    9.0031e-15
80    1.6197e-14
81    1.6845e-14
82    -3.5113e-15
83    -6.8033e-15
84    1.9664e-15
85    -1.3382e-15
86    -9.2083e-15
87    -2.8177e-15
88    -6.7478e-15
89    -2.0633e-16
90    -7.9995e-16
91    -7.8305e-15
92    2.6605e-15
93    6.1127e-15
94    -3.3700e-15
95    2.9840e-14
96    -1.0562e-14
97    -1.7312e-14
98    -1.0183e-15
99    9.9906e-16
100   -4.1384e-15
101   6.1523e-15
102   -1.5075e-14
103   -2.7330e-15
104   3.2835e-15
105   1.5867e-15
106   6.7643e-15
107   -1.7025e-14
108   1.3664e-15
109   -3.3316e-15
110   8.5345e-15
111   1.0012e-14
112   1.0243e-14
113   6.3759e-15
114   -1.3217e-14
115   -5.6964e-15
116   -1.7802e-14
117   -3.4451e-14
118   -1.1657e-14
119   -1.2037e-14
120   -4.9592e-15
121   5.5808e-15
122   -3.7820e-15
123   1.3024e-14
124   -3.7394e-15
125   -7.0297e-15
126   1.0582e-14
127   -5.7695e-15
128   -3.2171e-15
129   1.2213e-14
130   -3.3455e-16
131   1.8153e-15
132   4.2540e-15
133   3.3819e-15
134   -8.9129e-15
135   1.6908e-15
136   8.8534e-15
137   2.4807e-15
138   4.1791e-16
139   -6.1270e-16
140   -1.2758e-16
141   -8.0322e-16
142   2.9988e-17
143   -1.3558e-14
144   -3.4628e-17
145   3.0382e-15
146   3.6337e-15
147   -3.7382e-15
148   -1.9092e-15
149   -5.0914e-15
150   1.2133e-14
151   4.2993e-15
152   -3.7763e-15
153   1.7695e-15
154   -6.1667e-16
155   -7.2021e-16
156   1.3430e-15
157   8.2965e-16
158   5.5516e-15
159   4.2182e-16
160   -1.6708e-16
161   -8.8119e-16
162   8.7130e-16
163   9.6725e-15
164   6.7606e-15
165   -2.4916e-15
166   -1.2168e-14
167   3.1423e-15
168   1.8984e-15
169   9.9976e-15
170   9.9624e-16
171   3.0149e-15
172   -1.1143e-16
173   -1.1507e-15
174   -1.2120e-15
175   -5.6032e-15
176   3.5584e-15
177   2.3533e-16
178   1.8640e-15
179   4.2159e-16
180   -4.2105e-17
181   1.4369e-16
182   -4.7556e-15
183   7.8620e-16
184   1.8128e-15
185   2.2275e-15
186   -6.6514e-16
187   -4.5866e-15
188   -2.3857e-16
189   -8.4299e-15
190   5.5568e-15
191   -2.9160e-15
192   -2.4509e-15
193   -1.3907e-15
194   3.2630e-15
195   4.8592e-16
196   -2.2872e-15
197   -2.5792e-16
198   7.3725e-16
199   -4.0705e-15
200   -2.8963e-16
201   4.8440e-15
202   -4.2107e-15
203   -3.0096e-16
204   4.1798e-15
205   -5.5587e-15
206   -4.3277e-16
207   -7.8408e-16
208   9.1576e-17
209   -3.5924e-16
210   -2.0519e-15
211   -9.8671e-16
212   2.3177e-16
213   3.9979e-16
214   -9.0288e-16
215   -4.9017e-16
216   2.6959e-16
217   1.7731e-15
218   -9.8294e-18
219   -2.5297e-16
220   -2.0302e-15
221   4.4422e-15
222   3.1514e-17
223   -2.0163e-15
224   1.5775e-16
225   -2.4786e-16
226   -1.4613e-16
227   7.7571e-15
228   -1.2487e-15
229   -6.4647e-16
230   2.8984e-15
231   -1.7735e-15
232   -8.3157e-15
233   2.7338e-16
234   2.7189e-15
235   4.2611e-16
236   -2.7154e-16
237   -8.4524e-15
238   8.3551e-15
239   -2.7219e-15
240   8.6107e-16
241   -5.8513e-16
242   5.4579e-17
243   5.9138e-15
244   -3.1834e-16
245   -7.7412e-16
246   4.4240e-16
247   1.2184e-16
248   -8.2454e-15
249   9.1498e-15
250   -6.8773e-15
251   5.7580e-16
252   -7.1936e-15
253   1.6361e-16
254   4.3479e-15
255   -3.5343e-15
256   4.3305e-15
257   9.8006e-15
258   -6.4339e-15
259   6.4019e-15
260   -1.0829e-15
261   3.1227e-15
262   1.0989e-15
263   1.4674e-15
264   -3.8416e-16
265   -9.2181e-15
266   -9.1503e-17
267   -3.0680e-17
268   -2.5630e-16
269   -2.1570e-16
270   1.1014e-15
271   -3.9518e-15
272   1.6581e-16
273   4.5128e-15
274   3.3180e-15
275   -2.0885e-15
276   6.6991e-16
277   -1.6952e-15
278   -1.5858e-15
279   -1.6094e-15
280   -1.0185e-14
281   -6.5985e-15
282   -1.7711e-16
283   -4.2865e-15
284   -8.9529e-16
285   1.6160e-15
286   -3.6335e-16
287   8.5692e-18
288   1.9117e-15
289   -5.7005e-16
290   4.9011e-16
291   8.9294e-16
292   7.9131e-16
293   3.2181e-15
294   -5.0427e-16
295   -1.4691e-15
296   9.6587e-16
297   -1.1836e-15
298   -2.6987e-15
299   2.1423e-16
300   -4.6988e-16
301   4.2681e-16
302   1.0142e-15
303   1.9446e-15
304   -1.1298e-15
305   2.2823e-17
306   2.1380e-17
307   2.0315e-16
308   4.5337e-16
309   -1.9663e-16
310   -1.0571e-16
311   2.5834e-16
312   -4.8544e-16
313   3.5343e-16
314   -1.1004e-16
315   -2.0458e-16
316   -4.8505e-16

Decomposition over AOs for the right alpha Dyson orbital:
-1.09732460e-03
-8.35471020e-03
-4.09382769e-02
-1.38943999e-01
-3.35997234e-01
-1.43976928e-01
-4.67594054e-01
2.18342558e-03
6.75643073e-05
-6.19584634e-17
-3.89012928e-03
-1.11449455e-03
-6.50091157e-05
3.42988018e-15
2.31486727e-04
6.28696519e-04
7.38312914e-05
-8.22793330e-15
-4.34756550e-03
-1.50546585e-04
3.23581538e-04
5.13617630e-14
-6.06633094e-03
9.18978294e-04
5.79086277e-04
4.55852960e-14
2.68820415e-05
1.05589529e-16
8.68709441e-05
-1.68640603e-16
-8.86835088e-05
-4.33061939e-06
-3.30347035e-05
-1.61422114e-04
-5.49606301e-04
-1.31387120e-03
-5.13922476e-04
-1.88107269e-03
2.43641401e-05
-4.84947614e-06
-6.15981023e-16
-8.38099264e-05
-1.06433155e-04
3.27666448e-05
3.72912279e-15
-3.01988935e-04
-1.91788652e-05
7.61257973e-05
-7.97641848e-15
5.47614110e-06
1.88231341e-04
2.22954392e-04
4.50559491e-14
2.64353176e-03
6.96274409e-04
-3.19322750e-04
3.03580377e-14
3.16918934e-05
6.23327410e-17
2.10662302e-05
-2.27245276e-16
-3.69855418e-05
7.61047312e-08
5.58560687e-07
2.88840921e-06
9.21290088e-06
2.71735522e-05
2.62408020e-05
2.19573307e-05
5.52822433e-06
1.04122067e-06
4.31560235e-17
-2.61478923e-05
-2.81454310e-05
-1.03995606e-05
-2.86675885e-15
-3.24457932e-06
1.33353558e-05
6.74065084e-06
1.18920310e-14
-3.61041183e-05
-1.76140179e-04
8.14422669e-05
-5.10126422e-14
1.14325430e-03
1.19128841e-04
3.97350591e-04
2.24016846e-14
-8.67991419e-06
3.59023523e-16
4.90626086e-06
3.83974003e-17
-8.71162861e-06
1.36922589e-08
8.25223859e-08
5.61106682e-07
1.29603188e-06
8.33730010e-06
2.01611196e-05
-5.83079272e-06
5.01620098e-06
8.81983165e-07
-1.58399874e-16
-3.80956132e-05
-2.65629548e-05
-3.09324764e-06
-5.16319392e-16
1.23233173e-04
1.03406612e-04
-1.12877091e-05
1.42037105e-15
5.84726435e-04
1.10121941e-04
-1.72440084e-05
1.18926633e-14
-5.11459893e-05
-5.02309425e-06
4.28933543e-05
-2.43692607e-14
-3.17185311e-06
-5.60896223e-16
1.91004118e-06
9.07496199e-18
-8.37293544e-06
-4.65914718e-07
-3.58223526e-06
-1.73044035e-05
-5.97090545e-05
-1.36013013e-04
-3.29636978e-05
-2.18523137e-04
-3.22697065e-07
2.36563504e-05
-4.45242054e-17
-3.15026203e-05
1.54663133e-05
-8.10918857e-05
1.20895436e-15
-4.49127666e-06
-1.14505617e-04
-2.07343481e-05
-4.13665026e-15
9.23507683e-04
-5.62566438e-04
-2.26273388e-04
2.67012528e-14
1.72967469e-03
7.89130330e-05
2.72431311e-04
-1.59519793e-14
5.65592230e-06
-2.57012144e-16
1.42235792e-05
-2.70046291e-16
4.94470098e-05
-2.45835411e-05
4.95949173e-05
-1.96203733e-05
3.40408515e-05
-5.15897724e-17
-2.44105733e-04
-2.26141747e-04
5.00983412e-04
3.20374423e-15
3.82608675e-04
1.00384944e-05
-1.79202714e-04
-3.06378131e-15
-4.06552322e-04
8.62026420e-04
7.67894011e-06
-3.40864118e-14
7.32043862e-04
-2.61811349e-04
-1.09390936e-04
-6.77030776e-14
1.77437559e-04
-1.89971139e-16
3.28170890e-05
-2.05125284e-16
2.51993688e-04
-1.59608117e-06
6.86199550e-06
7.94022025e-06
-5.78961919e-06
8.04278794e-17
-4.88992218e-05
-4.91477590e-05
3.76047334e-05
6.19263871e-16
1.33809698e-04
3.24256017e-04
1.29337735e-04
1.24453094e-15
2.05398620e-03
4.31071939e-04
3.83098441e-05
-1.04307156e-13
-1.16638665e-03
-1.64061062e-03
-2.77956803e-04
8.45145702e-14
2.77925264e-05
-9.21858017e-17
-5.28239749e-07
7.96463455e-16
3.01986528e-05
-4.05887398e-06
9.47369614e-06
2.64629760e-05
-7.02804018e-06
3.58653035e-16
-6.72625805e-05
-1.82052408e-04
3.36766861e-05
-4.56303589e-17
2.09775674e-04
2.59573179e-04
-8.20125373e-05
-4.66952695e-15
5.05621235e-03
2.16591109e-03
-1.60349568e-03
1.60935173e-13
-4.77981766e-04
2.23814379e-03
-1.23390378e-04
-1.05193009e-13
3.50606559e-06
3.05691514e-16
2.78813263e-06
8.79957567e-16
-8.39904091e-05
-2.69185251e-05
5.88485600e-05
-2.80786799e-05
-2.52944839e-05
-1.45419669e-16
-2.81319246e-04
-3.19558115e-04
-5.17811154e-04
2.10949772e-15
2.03374165e-04
3.60800381e-04
4.13136229e-04
1.35765856e-15
-3.51804628e-03
3.31598247e-03
2.45285549e-03
-1.29091027e-13
3.70383265e-04
-4.10620230e-04
8.96930870e-04
6.05029495e-14
-2.43499653e-04
4.78848741e-16
5.80630399e-05
3.92366256e-16
2.35214301e-04
-3.73082068e-07
1.26159743e-06
2.00814990e-08
5.68208242e-07
1.16545392e-16
-1.37138742e-05
-2.37507134e-06
-6.93122079e-06
-1.20685640e-15
1.74607479e-05
8.69105694e-05
4.01749416e-05
-1.55044483e-15
-9.62274655e-05
5.32727297e-05
1.35724919e-04
8.74751922e-15
7.79930908e-04
2.16117629e-04
-4.19645683e-04
-6.76671754e-15
9.09419652e-07
-2.47060382e-16
-4.90800248e-06
-8.72090130e-16
2.39864924e-06
-2.46839008e-06
1.76740231e-05
-1.59681219e-05
-7.55030162e-05
-2.05210289e-06
-2.81207587e-06
-4.29035266e-16
-2.95501097e-06
1.31533315e-05
6.95710822e-05
9.77246091e-05
1.88970198e-07
5.76573478e-07
2.63450261e-16
-1.15573840e-05
-1.07508893e-04
6.09423753e-05
-6.29853882e-04
9.31872971e-06
8.55333321e-05
-1.47899827e-16
-3.20864627e-06
-2.65478864e-05
-2.81061302e-04
1.42021687e-04
3.30682504e-07
-1.04769817e-05
-2.99820370e-16
-5.57609768e-06
5.27722597e-05
1.35586486e-04
-2.22450738e-04
3.06248947e-06
1.22238771e-05
1.59918171e-16
   *****

     End transition


 Reference -- EOM-IP-CCSD state  2/A'   transition
 Energy difference = 405.5529 eV.

 Left Dyson orbital norm is 0.920584

Left alpha Dyson orbital in the MO basis (canonical Q-Chem's ordering):
0     8.0893e-05
1     6.4384e-06
2     1.3254e-04
3     -1.0000e+00
4     -1.6646e-03
5     -5.4892e-17
6     2.7262e-16
7     1.8451e-16
8     9.0526e-17
9     7.7088e-18
10    -2.1045e-16
11    -3.4900e-16
12    1.5418e-16
13    1.3654e-16
14    -7.7546e-17
15    1.8990e-17
16    5.1470e-16
17    1.3888e-16
18    -3.9316e-17
19    9.1555e-16
20    -2.4028e-16
21    1.9128e-16
22    9.9356e-17
23    1.1689e-16
24    -3.4833e-16
25    1.1711e-16
26    2.0336e-16
27    -3.1026e-17
28    8.4700e-17
29    -1.7411e-16
30    4.4273e-18
31    -1.9460e-16
32    5.1741e-16
33    -6.7097e-17
34    -2.2379e-17
35    -7.1848e-16
36    2.5811e-15
37    7.6153e-16
38    -8.4872e-16
39    -3.9328e-16
40    -3.1928e-16
41    1.1370e-15
42    -1.9642e-15
43    -5.5479e-15
44    2.1655e-15
45    -4.8905e-16
46    1.0824e-15
47    -2.4599e-15
48    1.4680e-15
49    -2.7832e-17
50    -2.3418e-15
51    2.6728e-16
52    -3.3360e-15
53    1.9976e-14
54    -2.5163e-15
55    5.6036e-16
56    -1.3538e-15
57    1.9514e-15
58    -2.7669e-16
59    2.6589e-15
60    -9.8316e-15
61    -1.2138e-14
62    7.3532e-15
63    -7.8173e-16
64    4.3163e-15
65    -2.0684e-15
66    -1.8475e-15
67    -1.8797e-14
68    2.2803e-15
69    -3.3296e-16
70    2.5573e-15
71    7.8602e-15
72    -7.8585e-15
73    6.1718e-15
74    -6.6561e-16
75    1.1475e-15
76    -1.0800e-14
77    -3.9860e-15
78    9.5474e-16
79    1.1310e-15
80    5.4244e-15
81    -5.2345e-15
82    -3.1900e-15
83    -3.6235e-15
84    1.5675e-14
85    -1.8159e-15
86    1.2214e-14
87    -2.9639e-15
88    -2.3410e-14
89    8.1173e-16
90    1.3516e-14
91    -1.2647e-14
92    3.3142e-15
93    8.4956e-15
94    -1.5046e-14
95    2.1976e-15
96    -2.2693e-15
97    -9.8691e-15
98    -3.3095e-15
99    1.1681e-15
100   -1.2358e-14
101   -4.6383e-15
102   -1.3115e-14
103   9.3656e-16
104   -1.4184e-14
105   8.2099e-16
106   2.2953e-14
107   1.4486e-14
108   -2.4821e-15
109   -3.1987e-15
110   1.5685e-14
111   5.6221e-15
112   6.3110e-15
113   1.7341e-14
114   -6.6726e-15
115   -4.4726e-15
116   -3.4461e-14
117   -1.3325e-15
118   -2.7363e-15
119   4.2046e-15
120   3.3191e-16
121   1.8269e-15
122   2.9134e-15
123   8.4772e-15
124   -1.0600e-16
125   -8.5615e-15
126   9.8908e-15
127   -3.1726e-15
128   -9.4615e-15
129   -8.6000e-16
130   -5.6076e-15
131   2.8068e-15
132   5.2259e-15
133   8.1118e-15
134   -1.0704e-14
135   2.0111e-15
136   1.6596e-14
137   -1.0012e-15
138   3.0814e-16
139   -1.1449e-15
140   -1.0439e-15
141   -6.1902e-16
142   3.3954e-16
143   -3.6325e-15
144   -2.2695e-17
145   -5.1057e-15
146   -5.6720e-15
147   -9.7091e-16
148   -1.3950e-15
149   -8.5711e-15
150   1.0237e-14
151   4.3659e-15
152   1.5935e-16
153   5.7907e-16
154   1.0780e-15
155   -1.2440e-15
156   1.1300e-14
157   -2.8509e-15
158   4.9158e-16
159   -3.2260e-15
160   -1.1767e-14
161   3.1286e-16
162   3.5503e-16
163   4.5829e-15
164   4.5371e-15
165   -1.0777e-16
166   9.1433e-16
167   2.2783e-15
168   3.1571e-15
169   -2.0376e-15
170   3.1541e-16
171   -2.7089e-15
172   -1.1717e-15
173   -5.1820e-15
174   -6.1457e-16
175   -8.5588e-15
176   9.2717e-16
177   1.7992e-16
178   3.1962e-15
179   1.0820e-16
180   -4.0360e-17
181   1.2630e-16
182   -5.3871e-15
183   5.7842e-16
184   -1.0526e-15
185   9.0250e-16
186   -3.5630e-16
187   -1.2503e-15
188   -1.4310e-16
189   -1.0273e-16
190   3.2851e-15
191   -6.4332e-15
192   -1.4055e-15
193   -2.6996e-15
194   1.6435e-15
195   2.6479e-16
196   -5.1947e-15
197   -5.6659e-16
198   3.0917e-15
199   -8.0964e-15
200   -6.2443e-16
201   3.6614e-15
202   -1.7575e-15
203   8.1932e-17
204   -4.2324e-15
205   -6.3179e-15
206   -1.8134e-16
207   -3.1093e-15
208   -3.0561e-15
209   -3.6726e-16
210   2.7160e-16
211   1.7761e-15
212   3.9483e-15
213   -3.7717e-15
214   -3.1671e-16
215   -2.2106e-15
216   1.6917e-16
217   -6.0518e-16
218   -1.6786e-16
219   5.7039e-17
220   -1.7631e-15
221   2.3337e-15
222   -1.7408e-16
223   -3.1701e-16
224   4.6086e-16
225   -4.4086e-16
226   -3.7630e-17
227   -1.0281e-15
228   -6.3686e-15
229   1.6903e-16
230   -2.8839e-15
231   -1.2709e-15
232   -7.3901e-16
233   1.4998e-16
234   1.1134e-15
235   6.9416e-16
236   -3.1585e-16
237   -2.8287e-15
238   -1.4121e-15
239   -4.8290e-17
240   2.7245e-16
241   2.7188e-15
242   8.2407e-16
243   3.0551e-15
244   -3.4466e-16
245   -5.1926e-16
246   -1.3013e-15
247   -1.8337e-16
248   1.5928e-15
249   -1.0437e-15
250   8.1894e-16
251   7.4080e-16
252   -5.7339e-16
253   7.1866e-16
254   6.7277e-16
255   -1.1651e-15
256   -4.8374e-16
257   1.4022e-15
258   -2.9498e-16
259   1.5690e-15
260   -4.6055e-16
261   3.7135e-15
262   2.0935e-15
263   -1.7563e-15
264   -1.2404e-15
265   3.4428e-15
266   -8.7499e-16
267   7.7907e-16
268   1.9740e-16
269   1.1069e-17
270   1.2105e-15
271   -5.2600e-16
272   1.4137e-15
273   2.6939e-16
274   7.1876e-16
275   2.2443e-15
276   5.0293e-16
277   -1.0444e-15
278   -3.5782e-15
279   3.2087e-15
280   -2.4435e-15
281   2.8097e-15
282   -5.9403e-16
283   -1.2348e-15
284   4.6137e-16
285   2.2406e-15
286   1.7384e-15
287   -1.3639e-16
288   1.0042e-15
289   -7.8642e-16
290   -8.4424e-16
291   5.7606e-17
292   2.4293e-15
293   4.0531e-16
294   1.7052e-15
295   1.7510e-15
296   -8.0034e-16
297   2.1677e-15
298   -1.4902e-16
299   1.0630e-15
300   1.1806e-15
301   -8.2495e-16
302   5.7768e-16
303   7.0515e-18
304   4.2510e-16
305   -1.4380e-15
306   3.5088e-16
307   -8.1523e-17
308   -1.0396e-16
309   4.6000e-16
310   7.2745e-16
311   -1.4521e-17
312   1.7172e-16
313   -1.8283e-16
314   5.3661e-16
315   4.4638e-16
316   -4.6548e-17

Decomposition over AOs for the left alpha Dyson orbital:
-4.33804360e-06
-3.29597676e-05
-1.61997306e-04
-5.47896502e-04
-1.34155855e-03
-6.27834698e-04
-1.80987766e-03
3.11537654e-05
-2.12218383e-05
-1.63456557e-15
6.88051322e-05
-7.78111345e-05
8.89034184e-05
1.23890722e-15
1.62629101e-04
2.67725768e-06
2.37101763e-05
-1.09341273e-14
-4.75815886e-04
-8.91622323e-05
-1.82396133e-04
4.98339110e-14
-3.26067309e-03
8.45581010e-04
-5.44355609e-04
5.53009529e-14
-5.00386776e-05
3.63571880e-16
-1.71752917e-05
3.19083859e-16
-9.27175471e-06
1.09734389e-03
8.35481306e-03
4.09391005e-02
1.38944997e-01
3.36008690e-01
1.43965809e-01
4.67605195e-01
7.21209573e-04
-2.14377207e-03
-9.09464412e-16
3.85511009e-03
-3.21118772e-04
1.14122894e-03
2.09123807e-15
-3.27148136e-04
1.30334987e-04
-6.51498438e-04
-7.59352409e-15
5.50454297e-03
-5.02901925e-04
-2.65078789e-04
4.34651009e-14
9.59708152e-03
-1.29709177e-03
-1.92211859e-03
2.65431250e-14
-9.41752677e-05
-5.06297392e-17
-7.34464664e-05
-1.85787444e-17
-3.59169922e-05
-2.91785710e-07
-2.18434752e-06
-1.09725399e-05
-3.61943146e-05
-9.63728967e-05
-6.88223624e-05
-1.04882779e-04
-4.68782744e-06
-6.74097683e-06
-3.28828175e-16
5.40506498e-05
2.70101201e-05
3.86110478e-05
-5.91500938e-16
-3.38768820e-05
-5.07441374e-05
-3.73132823e-05
3.84741346e-15
4.90670506e-04
-1.24742440e-04
1.72534861e-04
-2.49515659e-14
1.23616652e-03
1.94524423e-04
3.76674706e-04
-5.82533013e-14
1.54515431e-05
3.43207259e-16
-6.44629462e-06
-4.86942118e-16
-3.89433018e-06
2.24176192e-07
1.71656740e-06
8.34350587e-06
2.85907437e-05
6.67972827e-05
2.22877059e-05
1.01848084e-04
-1.00318200e-05
-1.19811577e-05
-3.95288683e-17
-5.36554973e-06
1.76383942e-05
2.68458734e-05
1.11087157e-15
7.58429629e-06
-1.05346794e-05
1.26158827e-04
3.99301240e-16
-2.28915745e-03
-2.48345610e-04
-1.38183095e-04
1.30437581e-14
-6.61097273e-03
-1.26693426e-03
-5.96402130e-04
1.84787644e-14
3.63140052e-05
-2.34089615e-16
-8.00968639e-06
-3.46013277e-16
4.38703196e-06
-3.15363176e-08
-2.21222069e-07
-1.22018687e-06
-3.61226710e-06
-1.32489515e-05
-1.99673729e-05
-3.29964997e-06
3.19690183e-06
-4.13618323e-06
-1.78353479e-15
3.34754675e-05
-1.65288942e-05
2.24585385e-05
2.10852586e-15
-1.20695867e-04
6.60007300e-05
-4.09541779e-05
-9.87487305e-15
-6.86908847e-05
3.24072399e-04
2.91538761e-05
2.93431608e-14
-5.61116092e-04
-6.94352407e-05
-1.39655117e-04
1.28737585e-16
-9.58993881e-06
-2.15520716e-16
1.19498462e-07
-8.83770970e-17
-3.18721927e-06
2.70197246e-05
-5.42758475e-05
-4.19580204e-05
8.44265014e-06
-9.87032473e-16
2.75201493e-04
-5.76757264e-04
4.34027724e-05
8.32440816e-16
-3.66629493e-04
1.61414762e-04
5.73792501e-05
-6.80410670e-15
1.64548207e-03
-3.64549756e-04
-1.17111715e-03
-4.08251261e-14
5.37952978e-03
-9.49045148e-04
7.94892918e-05
-1.10761377e-14
8.00838619e-06
2.61968154e-16
-3.13432493e-05
-1.19215069e-16
3.17015522e-04
2.75679056e-05
-7.19433782e-05
1.65000694e-05
2.82609932e-05
-7.52120788e-16
3.14933613e-04
3.12676451e-04
6.27531213e-04
1.28362171e-15
-4.32875908e-04
-3.27915000e-04
-5.09163630e-04
-2.73068086e-15
4.96951415e-03
-3.64131865e-03
-5.48526037e-03
-9.26831118e-14
-5.09494323e-03
-3.10676701e-03
-1.53770910e-03
-9.65928064e-14
3.53306698e-04
-3.54930084e-16
-8.30576816e-05
2.66114895e-17
-5.56488368e-05
3.64419772e-06
-1.18751459e-05
5.00448255e-06
-3.40227796e-05
-7.72316081e-16
7.74034401e-05
-4.82390171e-05
1.99451051e-04
-4.96994189e-16
-1.80990242e-04
-1.29554416e-04
-1.14108444e-04
-6.75577386e-15
-5.67203151e-03
3.53668839e-03
-2.23021921e-03
1.44035675e-13
-5.15279570e-03
3.75863544e-03
2.27067240e-04
1.97206509e-13
-4.84777165e-05
-3.24059484e-16
-6.07743110e-06
-2.95348157e-16
-1.06951648e-04
1.28539164e-06
-7.25461667e-06
9.07843247e-06
-5.67004476e-06
-2.10281754e-15
3.81230961e-05
-6.59771413e-05
3.25939459e-05
-1.26464098e-16
2.19646656e-04
-2.97943744e-05
-1.62309757e-04
-2.20498537e-15
-3.39433385e-03
2.80427775e-04
3.87347138e-04
-1.32812399e-13
-1.10939833e-03
-2.75663411e-04
3.86194345e-04
-1.02365418e-13
7.38226854e-06
3.43622734e-16
-6.92487451e-06
-5.84768167e-17
3.70485597e-05
1.79624600e-07
-2.44471826e-06
1.23506295e-06
2.18427225e-06
4.58132142e-16
2.09810706e-05
2.14723625e-06
6.56352286e-07
3.37188857e-16
4.87517052e-05
-1.44349748e-04
7.68618508e-05
-1.73705990e-15
-1.41384180e-03
-4.19715958e-04
-5.83550245e-04
2.63011556e-15
5.83697437e-03
1.40827496e-03
-1.30665407e-04
-5.47791319e-15
2.76889777e-06
1.11055103e-16
3.27297432e-06
-4.29142145e-16
-8.21435122e-06
1.10848257e-05
-7.04616273e-05
2.14653711e-04
2.21568103e-04
-1.98211575e-05
-7.31546069e-06
-3.90210050e-16
4.34842557e-06
-3.24085766e-05
-9.36552960e-05
-2.59755263e-04
-2.62063021e-06
-3.10408106e-06
7.59645567e-16
1.45501470e-05
1.08075055e-04
-3.78422343e-05
1.27568940e-03
-7.98791338e-05
-4.13241585e-05
-1.27982261e-16
2.13812093e-06
1.65222573e-05
8.52529885e-05
-4.49852543e-05
7.13016138e-07
5.46952726e-06
-5.10122429e-16
-8.16689607e-08
5.89194066e-06
-1.67852933e-04
8.54205904e-05
-1.30059795e-06
2.82512376e-06
-4.03175110e-16
   *****

 Right Dyson orbital norm is 0.945547

Right alpha Dyson orbital in the MO basis (canonical Q-Chem's ordering):
0     8.0088e-05
1     6.7576e-06
2     1.3052e-04
3     -1.0000e+00
4     -1.6628e-03
5     -5.4248e-17
6     2.7281e-16
7     1.8465e-16
8     9.0829e-17
9     7.7196e-18
10    -2.1261e-16
11    -3.4712e-16
12    1.4710e-16
13    1.3689e-16
14    -7.4711e-17
15    1.6702e-17
16    5.1251e-16
17    1.3924e-16
18    -3.6785e-17
19    9.1504e-16
20    -2.3972e-16
21    1.9051e-16
22    9.9079e-17
23    1.1689e-16
24    -3.4963e-16
25    1.1711e-16
26    2.0307e-16
27    -3.1025e-17
28    8.4700e-17
29    -1.7763e-16
30    3.5314e-18
31    -1.9460e-16
32    5.1738e-16
33    -6.7097e-17
34    -2.2379e-17
35    -7.1507e-16
36    2.5815e-15
37    7.6282e-16
38    -8.4872e-16
39    -3.9269e-16
40    -3.1909e-16
41    1.1370e-15
42    -1.9642e-15
43    -5.5474e-15
44    2.1651e-15
45    -4.8912e-16
46    1.0808e-15
47    -2.4598e-15
48    1.4683e-15
49    -2.5005e-17
50    -2.3418e-15
51    2.6646e-16
52    -3.3360e-15
53    1.9978e-14
54    -2.5158e-15
55    5.5998e-16
56    -1.3538e-15
57    1.9514e-15
58    -2.7465e-16
59    2.6589e-15
[...]
2.08654140e-06
-4.62769372e-14
-7.31866104e-04
-1.50799924e-04
-3.99268102e-05
-1.23326715e-13
-2.41781300e-05
-4.43166152e-16
-1.87443832e-05
1.72628673e-16
-5.76443739e-06
1.09719406e-03
8.35403555e-03
4.09327617e-02
1.38940246e-01
3.35928517e-01
1.44068704e-01
4.67476605e-01
3.36644471e-05
-4.62276639e-05
-1.28267511e-15
4.29731073e-03
3.90547350e-05
-3.13862746e-05
-1.79061381e-15
-5.41907225e-04
-6.73570421e-05
4.39690110e-05
-5.72389385e-15
2.32138504e-03
6.72103808e-04
-4.70291362e-04
1.84292603e-14
2.28009324e-03
7.02260831e-04
-2.14615566e-04
6.91099770e-14
-5.67225063e-05
9.52770766e-17
1.92173998e-05
2.60352433e-16
1.21851455e-06
-7.71681380e-09
-5.15455009e-08
-3.04472607e-07
-8.31601986e-07
-3.73501427e-06
-7.07596580e-06
6.18965143e-07
1.60018403e-06
-6.30360384e-07
1.22296556e-17
1.14658892e-05
-6.06693928e-06
2.66316634e-06
1.99526712e-15
-7.29733057e-06
-3.79953201e-05
-3.53686026e-05
-9.59099845e-16
9.41056374e-05
2.81576368e-05
-4.29729560e-05
2.63868880e-14
1.42434669e-04
1.24627646e-04
-1.13631920e-05
3.89975909e-14
-2.03905058e-06
-8.16211219e-19
-2.13582784e-07
-4.54122444e-17
9.21015073e-07
-1.30478194e-07
-1.76508362e-06
1.36473708e-07
1.10884208e-08
2.80426095e-16
9.75052240e-06
-1.36167186e-05
2.88093297e-07
5.42884744e-15
-1.19447799e-04
-3.21488863e-05
7.47915270e-05
-2.98279467e-15
-1.08687130e-03
2.32666331e-04
2.56053711e-04
-6.29796174e-14
-5.48026093e-04
-4.18714914e-05
3.81456459e-05
4.15720572e-14
1.31734155e-06
-7.57843847e-16
2.25252447e-06
-7.31589655e-16
4.60467116e-06
1.55025942e-05
-2.85550974e-05
-5.72568764e-05
-8.32808218e-06
-6.80884558e-16
2.07440816e-04
-3.23389219e-04
2.78593796e-05
-8.43132555e-17
-5.66736363e-05
-1.21487085e-04
-4.64997814e-04
6.31908732e-17
-1.87823200e-03
9.83572425e-04
8.90688525e-04
-1.73344857e-13
3.01419523e-04
-1.72242689e-04
3.53223746e-04
-2.71513311e-13
2.28511041e-06
1.21450832e-15
1.47311620e-06
1.80384758e-15
1.90792321e-04
2.10784121e-06
-7.45959124e-06
1.35290011e-05
-1.36689739e-05
-1.54648034e-15
5.85915901e-05
-8.50389160e-05
9.14593460e-05
8.86135883e-16
-1.57074973e-04
7.91985372e-04
-1.65274887e-04
-1.02772487e-14
4.59640358e-03
1.40949314e-03
-4.72247792e-04
2.38213428e-13
7.39586850e-04
2.41891146e-04
-1.14120969e-03
4.11575064e-13
-4.48546185e-05
1.71475131e-16
5.00154602e-07
1.15355233e-15
-3.94796827e-05
6.26855933e-07
-4.62039783e-06
5.31259567e-06
-6.56539143e-07
-3.62660612e-16
3.29525294e-05
-4.19230339e-05
2.13744495e-06
4.77844848e-15
-4.96158526e-04
4.02330450e-04
2.79066332e-05
-1.36093189e-15
-3.46478334e-03
1.14809437e-03
2.92700647e-04
-1.71928574e-13
2.67621343e-04
2.44687995e-05
7.54761116e-04
-2.39662872e-13
-1.11146824e-05
8.87063189e-16
-1.30422100e-06
6.30071200e-16
1.96187086e-05
1.54573875e-05
-2.57115063e-05
1.85076931e-05
5.33694014e-05
-6.92203654e-16
1.84225866e-04
1.42858496e-05
3.37633716e-04
-5.74613420e-15
-2.62390133e-04
1.45403156e-04
-8.57543495e-06
-1.78997448e-15
-8.76605722e-05
-1.09559030e-04
1.03602898e-05
-5.65983823e-15
-9.50836379e-04
-3.04963048e-04
1.12500915e-04
2.42586557e-15
1.99648423e-05
-2.83857987e-16
7.42400960e-06
-1.53793200e-15
-1.98527949e-04
2.38749072e-04
8.70015927e-05
1.89761275e-04
3.92327683e-04
8.51940619e-05
-9.15369179e-05
-7.28904696e-16
8.33264397e-06
1.63388709e-04
-2.94426546e-05
-1.36906493e-04
5.73002354e-05
4.27308911e-05
-1.15803809e-15
3.30783320e-07
5.70230379e-06
-3.03609803e-05
-1.23381177e-04
-1.53462402e-06
-2.59716208e-06
1.29796134e-15
1.61437018e-06
-1.94924654e-05
-3.69633729e-05
7.11822561e-05
-1.63878217e-06
-4.67031463e-06
-1.24077255e-16
1.03396477e-06
9.60048736e-06
-3.61055361e-05
-1.49713347e-04
6.39441775e-07
-1.70034606e-06
4.32788713e-16
   *****

     End transition

 Dyson orbitals calculation:   CPU 0.15 s  wall 0.12 s

 Total ccman2 time:   CPU 13017.57 s  wall 3471.82 s


 --------------------------------------------------------------
             Orbital Energies (a.u.) and Symmetries
 --------------------------------------------------------------

 Alpha MOs, Restricted
 -- Occupied --                  
-15.634 -15.587 -15.572 -15.559 -15.552 -11.342 -11.327 -11.321
  1 A'    2 A'    3 A'    4 A'    5 A'    6 A'    7 A'    8 A'                 
-11.313 -11.256  -1.374  -1.307  -1.253  -1.192  -1.157  -1.040
  9 A'   10 A'   11 A'   12 A'   13 A'   14 A'   15 A'   16 A'                 
 -0.901  -0.882  -0.849  -0.785  -0.745  -0.703  -0.683  -0.641
 17 A'   18 A'   19 A'   20 A'   21 A'   22 A'   23 A'    1 A"                 
 -0.639  -0.619  -0.597  -0.561  -0.500  -0.497  -0.452  -0.426
 24 A'   25 A'   26 A'    2 A"    3 A"   27 A'   28 A'    4 A"                 
 -0.411  -0.375  -0.312
 29 A'    5 A"    6 A"                                                         
 -- Virtual --                   
  0.010   0.016   0.021   0.024   0.028   0.029   0.033   0.036
 30 A'   31 A'   32 A'    7 A"   33 A'   34 A'    8 A"    9 A"                 
  0.037   0.041   0.042   0.049   0.052   0.052   0.055   0.057
 35 A'   36 A'   37 A'   38 A'   10 A"   39 A'   40 A'   11 A"                 
  0.059   0.061   0.065   0.071   0.080   0.081   0.082   0.082
 41 A'   42 A'   43 A'   44 A'   45 A'   12 A"   13 A"   46 A'                 
  0.091   0.091   0.092   0.099   0.100   0.102   0.103   0.104
 14 A"   47 A'   48 A'   49 A'   15 A"   50 A'   16 A"   51 A'                 
  0.107   0.112   0.116   0.118   0.123   0.131   0.138   0.141
 52 A'   53 A'   17 A"   54 A'   55 A'   56 A'   57 A'   18 A"                 
  0.149   0.150   0.159   0.164   0.180   0.199   0.203   0.210
 58 A'   59 A'   60 A'   19 A"   61 A'   62 A'   63 A'   20 A"                 
  0.212   0.215   0.222   0.226   0.226   0.231   0.233   0.234
 64 A'   65 A'   21 A"   66 A'   22 A"   67 A'   23 A"   68 A'                 
  0.239   0.242   0.248   0.262   0.268   0.284   0.287   0.293
 69 A'   24 A"   70 A'   71 A'   72 A'   73 A'   74 A'   25 A"                 
  0.303   0.309   0.323   0.333   0.335   0.339   0.339   0.346
 26 A"   75 A'   76 A'   77 A'   27 A"   78 A'   28 A"   79 A'                 
  0.351   0.364   0.368   0.371   0.385   0.390   0.401   0.414
 80 A'   81 A'   29 A"   82 A'   83 A'   84 A'   85 A'   86 A'                 
  0.416   0.420   0.429   0.439   0.457   0.460   0.472   0.474
 30 A"   87 A'   88 A'   89 A'   90 A'   91 A'   92 A'   93 A'                 
  0.477   0.494   0.504   0.518   0.536   0.550   0.575   0.587
 94 A'   95 A'   96 A'   97 A'   98 A'   99 A'  100 A'  101 A'                 
  0.614   0.646   0.664   0.692   0.725   0.771   0.775   0.775
102 A'  103 A'  104 A'  105 A'  106 A'  107 A'  108 A'   31 A"                 
  0.787   0.805   0.813   0.821   0.834   0.870   0.889   0.916
 32 A"  109 A'   33 A"   34 A"  110 A'   35 A"  111 A'  112 A'                 
  0.937   0.961   0.984   1.001   1.031   1.040   1.056   1.063
113 A'  114 A'  115 A'  116 A'  117 A'  118 A'  119 A'   36 A"                 
  1.078   1.103   1.113   1.118   1.128   1.133   1.136   1.140
 37 A"  120 A'  121 A'  122 A'  123 A'  124 A'   38 A"   39 A"                 
  1.151   1.158   1.188   1.189   1.207   1.226   1.237   1.240
125 A'  126 A'  127 A'  128 A'   40 A"  129 A'  130 A'   41 A"                 
  1.256   1.283   1.299   1.304   1.316   1.349   1.368   1.405
131 A'  132 A'  133 A'   42 A"  134 A'  135 A'   43 A"  136 A'                 
  1.407   1.414   1.450   1.457   1.485   1.522   1.540   1.577
 44 A"   45 A"   46 A"  137 A'   47 A"  138 A'  139 A'   48 A"                 
  1.641   1.648   1.657   1.746   1.765   1.782   1.833   1.879
140 A'   49 A"  141 A'  142 A'  143 A'  144 A'  145 A'  146 A'                 
  1.888   1.939   1.949   1.976   2.004   2.017   2.020   2.054
 50 A"  147 A'   51 A"  148 A'  149 A'   52 A"  150 A'  151 A'                 
  2.084   2.085   2.121   2.137   2.154   2.196   2.225   2.236
 53 A"  152 A'  153 A'   54 A"  154 A'  155 A'   55 A"  156 A'                 
  2.301   2.333   2.456   2.477   2.488   2.489   2.516   2.564
157 A'  158 A'  159 A'  160 A'  161 A'   56 A"  162 A'   57 A"                 
  2.598   2.609   2.620   2.656   2.728   2.743   2.801   2.863
 58 A"  163 A'  164 A'   59 A"  165 A'   60 A"   61 A"   62 A"                 
  2.884   2.902   2.905   2.943   2.980   2.994   2.998   3.023
166 A'  167 A'   63 A"  168 A'  169 A'  170 A'   64 A"  171 A'                 
  3.075   3.115   3.120   3.146   3.179   3.206   3.213   3.225
172 A'   65 A"  173 A'  174 A'  175 A'  176 A'  177 A'   66 A"                 
  3.244   3.271   3.280   3.283   3.293   3.317   3.373   3.389
178 A'   67 A"   68 A"  179 A'   69 A"  180 A'  181 A'  182 A'                 
  3.396   3.468   3.514   3.697   3.737   3.811   3.897   3.927
 70 A"  183 A'  184 A'  185 A'  186 A'  187 A'  188 A'  189 A'                 
  3.970   4.024   4.079   4.107   4.150   4.192   4.303   4.340
190 A'  191 A'  192 A'  193 A'  194 A'  195 A'  196 A'   71 A"                 
  4.362   4.423   4.439   4.461   4.578   4.858   4.984   5.042
 72 A"   73 A"   74 A"   75 A"  197 A'  198 A'  199 A'  200 A'                 
  5.194   5.293   5.366   5.502   5.611   5.771   5.857   7.553
201 A'  202 A'  203 A'  204 A'  205 A'  206 A'  207 A'  208 A'                 
  7.696   7.788   7.891   7.925  24.935  25.086  25.123  25.137
209 A'  210 A'  211 A'  212 A'  213 A'  214 A'  215 A'  216 A'                 
 25.249  30.168  30.216  30.275  30.386  30.399 116.290 116.338
217 A'  218 A'  219 A'  220 A'  221 A'  222 A'  223 A'  224 A'                 
116.385 116.476 116.490 460.401 460.445 460.489 460.561 460.575
225 A'  226 A'  227 A'  228 A'  229 A'  230 A'  231 A'  232 A'                 
*******2012.9252012.9682013.0262013.039************************
233 A'  234 A'  235 A'  236 A'  237 A'  238 A'  239 A'  240 A'                 
***************
241 A'  242 A'                                                                 

 Beta MOs, Restricted
 -- Occupied --                  
-15.634 -15.587 -15.572 -15.559 -15.552 -11.342 -11.327 -11.321
  1 A'    2 A'    3 A'    4 A'    5 A'    6 A'    7 A'    8 A'                 
-11.313 -11.256  -1.374  -1.307  -1.253  -1.192  -1.157  -1.040
  9 A'   10 A'   11 A'   12 A'   13 A'   14 A'   15 A'   16 A'                 
 -0.901  -0.882  -0.849  -0.785  -0.745  -0.703  -0.683  -0.641
 17 A'   18 A'   19 A'   20 A'   21 A'   22 A'   23 A'    1 A"                 
 -0.639  -0.619  -0.597  -0.561  -0.500  -0.497  -0.452  -0.426
 24 A'   25 A'   26 A'    2 A"    3 A"   27 A'   28 A'    4 A"                 
 -0.411  -0.375  -0.312
 29 A'    5 A"    6 A"                                                         
 -- Virtual --                   
  0.010   0.016   0.021   0.024   0.028   0.029   0.033   0.036
 30 A'   31 A'   32 A'    7 A"   33 A'   34 A'    8 A"    9 A"                 
  0.037   0.041   0.042   0.049   0.052   0.052   0.055   0.057
 35 A'   36 A'   37 A'   38 A'   10 A"   39 A'   40 A'   11 A"                 
  0.059   0.061   0.065   0.071   0.080   0.081   0.082   0.082
 41 A'   42 A'   43 A'   44 A'   45 A'   12 A"   13 A"   46 A'                 
  0.091   0.091   0.092   0.099   0.100   0.102   0.103   0.104
 14 A"   47 A'   48 A'   49 A'   15 A"   50 A'   16 A"   51 A'                 
  0.107   0.112   0.116   0.118   0.123   0.131   0.138   0.141
 52 A'   53 A'   17 A"   54 A'   55 A'   56 A'   57 A'   18 A"                 
  0.149   0.150   0.159   0.164   0.180   0.199   0.203   0.210
 58 A'   59 A'   60 A'   19 A"   61 A'   62 A'   63 A'   20 A"                 
  0.212   0.215   0.222   0.226   0.226   0.231   0.233   0.234
 64 A'   65 A'   21 A"   66 A'   22 A"   67 A'   23 A"   68 A'                 
  0.239   0.242   0.248   0.262   0.268   0.284   0.287   0.293
 69 A'   24 A"   70 A'   71 A'   72 A'   73 A'   74 A'   25 A"                 
  0.303   0.309   0.323   0.333   0.335   0.339   0.339   0.346
 26 A"   75 A'   76 A'   77 A'   27 A"   78 A'   28 A"   79 A'                 
  0.351   0.364   0.368   0.371   0.385   0.390   0.401   0.414
 80 A'   81 A'   29 A"   82 A'   83 A'   84 A'   85 A'   86 A'                 
  0.416   0.420   0.429   0.439   0.457   0.460   0.472   0.474
 30 A"   87 A'   88 A'   89 A'   90 A'   91 A'   92 A'   93 A'                 
  0.477   0.494   0.504   0.518   0.536   0.550   0.575   0.587
 94 A'   95 A'   96 A'   97 A'   98 A'   99 A'  100 A'  101 A'                 
  0.614   0.646   0.664   0.692   0.725   0.771   0.775   0.775
102 A'  103 A'  104 A'  105 A'  106 A'  107 A'  108 A'   31 A"                 
  0.787   0.805   0.813   0.821   0.834   0.870   0.889   0.916
 32 A"  109 A'   33 A"   34 A"  110 A'   35 A"  111 A'  112 A'                 
  0.937   0.961   0.984   1.001   1.031   1.040   1.056   1.063
113 A'  114 A'  115 A'  116 A'  117 A'  118 A'  119 A'   36 A"                 
  1.078   1.103   1.113   1.118   1.128   1.133   1.136   1.140
 37 A"  120 A'  121 A'  122 A'  123 A'  124 A'   38 A"   39 A"                 
  1.151   1.158   1.188   1.189   1.207   1.226   1.237   1.240
125 A'  126 A'  127 A'  128 A'   40 A"  129 A'  130 A'   41 A"                 
  1.256   1.283   1.299   1.304   1.316   1.349   1.368   1.405
131 A'  132 A'  133 A'   42 A"  134 A'  135 A'   43 A"  136 A'                 
  1.407   1.414   1.450   1.457   1.485   1.522   1.540   1.577
 44 A"   45 A"   46 A"  137 A'   47 A"  138 A'  139 A'   48 A"                 
  1.641   1.648   1.657   1.746   1.765   1.782   1.833   1.879
140 A'   49 A"  141 A'  142 A'  143 A'  144 A'  145 A'  146 A'                 
  1.888   1.939   1.949   1.976   2.004   2.017   2.020   2.054
 50 A"  147 A'   51 A"  148 A'  149 A'   52 A"  150 A'  151 A'                 
  2.084   2.085   2.121   2.137   2.154   2.196   2.225   2.236
 53 A"  152 A'  153 A'   54 A"  154 A'  155 A'   55 A"  156 A'                 
  2.301   2.333   2.456   2.477   2.488   2.489   2.516   2.564
157 A'  158 A'  159 A'  160 A'  161 A'   56 A"  162 A'   57 A"                 
  2.598   2.609   2.620   2.656   2.728   2.743   2.801   2.863
 58 A"  163 A'  164 A'   59 A"  165 A'   60 A"   61 A"   62 A"                 
  2.884   2.902   2.905   2.943   2.980   2.994   2.998   3.023
166 A'  167 A'   63 A"  168 A'  169 A'  170 A'   64 A"  171 A'                 
  3.075   3.115   3.120   3.146   3.179   3.206   3.213   3.225
172 A'   65 A"  173 A'  174 A'  175 A'  176 A'  177 A'   66 A"                 
  3.244   3.271   3.280   3.283   3.293   3.317   3.373   3.389
178 A'   67 A"   68 A"  179 A'   69 A"  180 A'  181 A'  182 A'                 
  3.396   3.468   3.514   3.697   3.737   3.811   3.897   3.927
 70 A"  183 A'  184 A'  185 A'  186 A'  187 A'  188 A'  189 A'                 
  3.970   4.024   4.079   4.107   4.150   4.192   4.303   4.340
190 A'  191 A'  192 A'  193 A'  194 A'  195 A'  196 A'   71 A"                 
  4.362   4.423   4.439   4.461   4.578   4.858   4.984   5.042
 72 A"   73 A"   74 A"   75 A"  197 A'  198 A'  199 A'  200 A'                 
  5.194   5.293   5.366   5.502   5.611   5.771   5.857   7.553
201 A'  202 A'  203 A'  204 A'  205 A'  206 A'  207 A'  208 A'                 
  7.696   7.788   7.891   7.925  24.935  25.086  25.123  25.137
209 A'  210 A'  211 A'  212 A'  213 A'  214 A'  215 A'  216 A'                 
 25.249  30.168  30.216  30.275  30.386  30.399 116.290 116.338
217 A'  218 A'  219 A'  220 A'  221 A'  222 A'  223 A'  224 A'                 
116.385 116.476 116.490 460.401 460.445 460.489 460.561 460.575
225 A'  226 A'  227 A'  228 A'  229 A'  230 A'  231 A'  232 A'                 
*******2012.9252012.9682013.0262013.039************************
233 A'  234 A'  235 A'  236 A'  237 A'  238 A'  239 A'  240 A'                 
***************
241 A'  242 A'                                                                 
 --------------------------------------------------------------

          Ground-State Mulliken Net Atomic Charges

     Atom                 Charge (a.u.)
  ----------------------------------------
      1 N                    -0.125920
      2 N                    -0.116658
      3 N                    -0.156297
      4 N                    -0.162681
      5 N                    -0.249299
      6 C                    -0.105570
      7 C                    -0.417024
      8 C                    -0.103109
      9 C                    -0.227672
     10 C                     0.109942
     11 H                     0.342732
     12 H                     0.285186
     13 H                     0.295860
     14 H                     0.275837
     15 H                     0.354672
  ----------------------------------------
  Sum of atomic charges =     0.000000

 -----------------------------------------------------------------
                    Cartesian Multipole Moments
 -----------------------------------------------------------------
    Charge (ESU x 10^10)
                 0.0000
    Dipole Moment (Debye)
         X      -2.3019      Y      -1.0494      Z       0.0000
       Tot       2.5298
    Quadrupole Moments (Debye-Ang)
        XX     -43.7854     XY      -6.4414     YY     -57.8867
        XZ       0.0000     YZ      -0.0000     ZZ     -60.5674
    Octopole Moments (Debye-Ang^2)
       XXX     -45.0024    XXY      -5.7451    XYY      20.2710
       YYY     -17.0604    XXZ       0.0000    XYZ      -0.0000
       YYZ      -0.0000    XZZ      -0.6218    YZZ       0.9578
       ZZZ       0.0000
    Hexadecapole Moments (Debye-Ang^3)
      XXXX    -712.0372   XXXY     -62.6389   XXYY    -183.7428
      XYYY     -31.6370   YYYY    -604.0676   XXXZ       0.0000
      XXYZ      -0.0000   XYYZ       0.0000   YYYZ      -0.0000
      XXZZ    -171.3294   XYZZ      -1.1843   YYZZ    -122.6174
      XZZZ       0.0000   YZZZ      -0.0000   ZZZZ     -64.5615
 -----------------------------------------------------------------
Archival summary:
1\1\n-62-23-14\SP\ProcedureUnspecified\BasisUnspecified\555\malop\WedMay815:15:212019WedMay815:15:212019\0\\#,ProcedureUnspecified,BasisUnspecified,\\0,1\C\N,1,1.38182\C,2,1.30551,1,104.18\H,3,1.07746,2,125.183,1,-180,0\N,3,1.37601,2,113.269,1,0,0\H,5,1.0053,3,127.367,2,180,0\C,5,1.37427,3,106.743,2,-0,0\N,7,1.33366,5,128.73,3,-180,0\C,8,1.33073,7,111.405,5,180,0\H,9,1.08341,8,116.059,7,180,0\N,9,1.33855,8,128.571,7,-0,0\C,11,1.33926,9,118.701,8,-0,0\N,12,1.34913,11,119.071,9,-180,0\H,13,1.00259,12,120.298,11,-180,0\H,13,1.0031,12,119.173,11,0,0\\HF=-464.63681\\@

 Total job time:  3615.32s(wall), 13408.82s(cpu) 
 Wed May  8 15:15:21 2019

======= MOLDEN-FORMATTED INPUT FILE FOLLOWS =======
[Molden Format]
[Atoms] (Angs)
  N      1    7      1.94018933      0.52508494      0.00000000
  N      2    7     -0.02213269      1.91541175      0.00000000
  N      3    7     -1.17840874     -1.47034963     -0.00000000
  N      4    7     -2.06912523      0.58482266      0.00000000
  N      5    7      1.87296022     -1.79117643     -0.00000000
  C      6    6      1.29026180      1.69525713      0.00000000
  C      7    6     -0.70757697      0.77138093      0.00000000
  C      8    6     -0.17789318     -0.51725539     -0.00000000
  C      9    6      1.22552274     -0.60755281     -0.00000000
  C     10    6     -2.28299045     -0.77446763     -0.00000000
  H     11    1     -2.76356369      1.31172362      0.00000000
  H     12    1     -3.27766143     -1.18864608     -0.00000000
  H     13    1      1.92065024      2.57638112      0.00000000
  H     14    1      1.35622854     -2.65035184     -0.00000000
  H     15    1      2.87602238     -1.79983315     -0.00000000

======= END OF MOLDEN-FORMATTED INPUT FILE =======


        *************************************************************
        *                                                           *
        *  Thank you very much for using Q-Chem.  Have a nice day.  *
        *                                                           *
        *************************************************************


