[Molden Format]
[Atoms] (Angs)
  N      1    7      1.94018933      0.52508494      0.00000000
  N      2    7     -0.02213269      1.91541175      0.00000000
  N      3    7     -1.17840874     -1.47034963     -0.00000000
  N      4    7     -2.06912523      0.58482266      0.00000000
  N      5    7      1.87296022     -1.79117643     -0.00000000
  C      6    6      1.29026180      1.69525713      0.00000000
  C      7    6     -0.70757697      0.77138093      0.00000000
  C      8    6     -0.17789318     -0.51725539     -0.00000000
  C      9    6      1.22552274     -0.60755281     -0.00000000
  C     10    6     -2.28299045     -0.77446763     -0.00000000
  H     11    1     -2.76356369      1.31172362      0.00000000
  H     12    1     -3.27766143     -1.18864608     -0.00000000
  H     13    1      1.92065024      2.57638112      0.00000000
  H     14    1      1.35622854     -2.65035184     -0.00000000
  H     15    1      2.87602238     -1.79983315     -0.00000000
[GTO]
1    0
S    1    1.000000
   6.29348000E+03    1.96979000E-03 
S    1    1.000000
   9.49044000E+02    1.49613000E-02 
S    1    1.000000
   2.18776000E+02    7.35006000E-02 
S    1    1.000000
   6.36916000E+01    2.48937000E-01 
S    1    1.000000
   1.88282000E+01    6.02460000E-01 
S    1    1.000000
   2.72023000E+00    2.56202000E-01 
SP   3    1.000000
   3.06331000E+01    1.11906000E-01   3.83119000E-02 
   7.02614000E+00    9.21666000E-01   2.37403000E-01 
   2.11205000E+00   -2.56919000E-03   8.17592000E-01 
SP   1    1.000000
   6.84009000E-01    1.00000000E+00   1.00000000E+00 
SP   1    1.000000
   2.00878000E-01    1.00000000E+00   1.00000000E+00 
SP   1    1.000000
   6.39000000E-02    1.00000000E+00   1.00000000E+00 
SP   1    1.000000
   1.92469880E-02    1.00000000E+00   1.00000000E+00 
D    1    1.000000
   9.13000000E-01    1.00000000E+00 

2    0
S    1    1.000000
   6.29348000E+03    1.96979000E-03 
S    1    1.000000
   9.49044000E+02    1.49613000E-02 
S    1    1.000000
   2.18776000E+02    7.35006000E-02 
S    1    1.000000
   6.36916000E+01    2.48937000E-01 
S    1    1.000000
   1.88282000E+01    6.02460000E-01 
S    1    1.000000
   2.72023000E+00    2.56202000E-01 
SP   3    1.000000
   3.06331000E+01    1.11906000E-01   3.83119000E-02 
   7.02614000E+00    9.21666000E-01   2.37403000E-01 
   2.11205000E+00   -2.56919000E-03   8.17592000E-01 
SP   1    1.000000
   6.84009000E-01    1.00000000E+00   1.00000000E+00 
SP   1    1.000000
   2.00878000E-01    1.00000000E+00   1.00000000E+00 
SP   1    1.000000
   6.39000000E-02    1.00000000E+00   1.00000000E+00 
SP   1    1.000000
   1.92469880E-02    1.00000000E+00   1.00000000E+00 
D    1    1.000000
   9.13000000E-01    1.00000000E+00 

3    0
S    1    1.000000
   6.29348000E+03    1.96979000E-03 
S    1    1.000000
   9.49044000E+02    1.49613000E-02 
S    1    1.000000
   2.18776000E+02    7.35006000E-02 
S    1    1.000000
   6.36916000E+01    2.48937000E-01 
S    1    1.000000
   1.88282000E+01    6.02460000E-01 
S    1    1.000000
   2.72023000E+00    2.56202000E-01 
SP   3    1.000000
   3.06331000E+01    1.11906000E-01   3.83119000E-02 
   7.02614000E+00    9.21666000E-01   2.37403000E-01 
   2.11205000E+00   -2.56919000E-03   8.17592000E-01 
SP   1    1.000000
   6.84009000E-01    1.00000000E+00   1.00000000E+00 
SP   1    1.000000
   2.00878000E-01    1.00000000E+00   1.00000000E+00 
SP   1    1.000000
   6.39000000E-02    1.00000000E+00   1.00000000E+00 
SP   1    1.000000
   1.92469880E-02    1.00000000E+00   1.00000000E+00 
D    1    1.000000
   9.13000000E-01    1.00000000E+00 

4    0
S    1    1.000000
   6.29348000E+03    1.96979000E-03 
S    1    1.000000
   9.49044000E+02    1.49613000E-02 
S    1    1.000000
   2.18776000E+02    7.35006000E-02 
S    1    1.000000
   6.36916000E+01    2.48937000E-01 
S    1    1.000000
   1.88282000E+01    6.02460000E-01 
S    1    1.000000
   2.72023000E+00    2.56202000E-01 
SP   3    1.000000
   3.06331000E+01    1.11906000E-01   3.83119000E-02 
   7.02614000E+00    9.21666000E-01   2.37403000E-01 
   2.11205000E+00   -2.56919000E-03   8.17592000E-01 
SP   1    1.000000
   6.84009000E-01    1.00000000E+00   1.00000000E+00 
SP   1    1.000000
   2.00878000E-01    1.00000000E+00   1.00000000E+00 
SP   1    1.000000
   6.39000000E-02    1.00000000E+00   1.00000000E+00 
SP   1    1.000000
   1.92469880E-02    1.00000000E+00   1.00000000E+00 
D    1    1.000000
   9.13000000E-01    1.00000000E+00 

5    0
S    1    1.000000
   6.29348000E+03    1.96979000E-03 
S    1    1.000000
   9.49044000E+02    1.49613000E-02 
S    1    1.000000
   2.18776000E+02    7.35006000E-02 
S    1    1.000000
   6.36916000E+01    2.48937000E-01 
S    1    1.000000
   1.88282000E+01    6.02460000E-01 
S    1    1.000000
   2.72023000E+00    2.56202000E-01 
SP   3    1.000000
   3.06331000E+01    1.11906000E-01   3.83119000E-02 
   7.02614000E+00    9.21666000E-01   2.37403000E-01 
   2.11205000E+00   -2.56919000E-03   8.17592000E-01 
SP   1    1.000000
   6.84009000E-01    1.00000000E+00   1.00000000E+00 
SP   1    1.000000
   2.00878000E-01    1.00000000E+00   1.00000000E+00 
SP   1    1.000000
   6.39000000E-02    1.00000000E+00   1.00000000E+00 
SP   1    1.000000
   1.92469880E-02    1.00000000E+00   1.00000000E+00 
D    1    1.000000
   9.13000000E-01    1.00000000E+00 

6    0
S    6    1.000000
   4.56324000E+03    1.96665000E-03 
   6.82024000E+02    1.52306000E-02 
   1.54973000E+02    7.61269000E-02 
   4.44553000E+01    2.60801000E-01 
   1.30290000E+01    6.16462000E-01 
   1.82773000E+00    2.21006000E-01 
SP   3    1.000000
   2.09642000E+01    1.14660000E-01   4.02487000E-02 
   4.80331000E+00    9.19999000E-01   2.37594000E-01 
   1.45933000E+00   -3.03068000E-03   8.15854000E-01 
SP   1    1.000000
   4.83456000E-01    1.00000000E+00   1.00000000E+00 
SP   1    1.000000
   1.45585000E-01    1.00000000E+00   1.00000000E+00 
SP   1    1.000000
   4.38000000E-02    1.00000000E+00   1.00000000E+00 
SP   1    1.000000
   1.31927711E-02    1.00000000E+00   1.00000000E+00 
D    1    1.000000
   6.26000000E-01    1.00000000E+00 

7    0
S    6    1.000000
   4.56324000E+03    1.96665000E-03 
   6.82024000E+02    1.52306000E-02 
   1.54973000E+02    7.61269000E-02 
   4.44553000E+01    2.60801000E-01 
   1.30290000E+01    6.16462000E-01 
   1.82773000E+00    2.21006000E-01 
SP   3    1.000000
   2.09642000E+01    1.14660000E-01   4.02487000E-02 
   4.80331000E+00    9.19999000E-01   2.37594000E-01 
   1.45933000E+00   -3.03068000E-03   8.15854000E-01 
SP   1    1.000000
   4.83456000E-01    1.00000000E+00   1.00000000E+00 
SP   1    1.000000
   1.45585000E-01    1.00000000E+00   1.00000000E+00 
SP   1    1.000000
   4.38000000E-02    1.00000000E+00   1.00000000E+00 
SP   1    1.000000
   1.31927711E-02    1.00000000E+00   1.00000000E+00 
D    1    1.000000
   6.26000000E-01    1.00000000E+00 

8    0
S    6    1.000000
   4.56324000E+03    1.96665000E-03 
   6.82024000E+02    1.52306000E-02 
   1.54973000E+02    7.61269000E-02 
   4.44553000E+01    2.60801000E-01 
   1.30290000E+01    6.16462000E-01 
   1.82773000E+00    2.21006000E-01 
SP   3    1.000000
   2.09642000E+01    1.14660000E-01   4.02487000E-02 
   4.80331000E+00    9.19999000E-01   2.37594000E-01 
   1.45933000E+00   -3.03068000E-03   8.15854000E-01 
SP   1    1.000000
   4.83456000E-01    1.00000000E+00   1.00000000E+00 
SP   1    1.000000
   1.45585000E-01    1.00000000E+00   1.00000000E+00 
SP   1    1.000000
   4.38000000E-02    1.00000000E+00   1.00000000E+00 
SP   1    1.000000
   1.31927711E-02    1.00000000E+00   1.00000000E+00 
D    1    1.000000
   6.26000000E-01    1.00000000E+00 

9    0
S    6    1.000000
   4.56324000E+03    1.96665000E-03 
   6.82024000E+02    1.52306000E-02 
   1.54973000E+02    7.61269000E-02 
   4.44553000E+01    2.60801000E-01 
   1.30290000E+01    6.16462000E-01 
   1.82773000E+00    2.21006000E-01 
SP   3    1.000000
   2.09642000E+01    1.14660000E-01   4.02487000E-02 
   4.80331000E+00    9.19999000E-01   2.37594000E-01 
   1.45933000E+00   -3.03068000E-03   8.15854000E-01 
SP   1    1.000000
   4.83456000E-01    1.00000000E+00   1.00000000E+00 
SP   1    1.000000
   1.45585000E-01    1.00000000E+00   1.00000000E+00 
SP   1    1.000000
   4.38000000E-02    1.00000000E+00   1.00000000E+00 
SP   1    1.000000
   1.31927711E-02    1.00000000E+00   1.00000000E+00 
D    1    1.000000
   6.26000000E-01    1.00000000E+00 

10    0
S    6    1.000000
   4.56324000E+03    1.96665000E-03 
   6.82024000E+02    1.52306000E-02 
   1.54973000E+02    7.61269000E-02 
   4.44553000E+01    2.60801000E-01 
   1.30290000E+01    6.16462000E-01 
   1.82773000E+00    2.21006000E-01 
SP   3    1.000000
   2.09642000E+01    1.14660000E-01   4.02487000E-02 
   4.80331000E+00    9.19999000E-01   2.37594000E-01 
   1.45933000E+00   -3.03068000E-03   8.15854000E-01 
SP   1    1.000000
   4.83456000E-01    1.00000000E+00   1.00000000E+00 
SP   1    1.000000
   1.45585000E-01    1.00000000E+00   1.00000000E+00 
SP   1    1.000000
   4.38000000E-02    1.00000000E+00   1.00000000E+00 
SP   1    1.000000
   1.31927711E-02    1.00000000E+00   1.00000000E+00 
D    1    1.000000
   6.26000000E-01    1.00000000E+00 

11    0
S    3    1.000000
   3.38650000E+01    2.54938000E-02 
   5.09479000E+00    1.90373000E-01 
   1.15879000E+00    8.52161000E-01 
S    1    1.000000
   3.25840000E-01    1.00000000E+00 
S    1    1.000000
   1.02741000E-01    1.00000000E+00 
S    1    1.000000
   3.60000000E-02    1.00000000E+00 
P    1    1.000000
   7.50000000E-01    1.00000000E+00 

12    0
S    3    1.000000
   3.38650000E+01    2.54938000E-02 
   5.09479000E+00    1.90373000E-01 
   1.15879000E+00    8.52161000E-01 
S    1    1.000000
   3.25840000E-01    1.00000000E+00 
S    1    1.000000
   1.02741000E-01    1.00000000E+00 
S    1    1.000000
   3.60000000E-02    1.00000000E+00 
P    1    1.000000
   7.50000000E-01    1.00000000E+00 

13    0
S    3    1.000000
   3.38650000E+01    2.54938000E-02 
   5.09479000E+00    1.90373000E-01 
   1.15879000E+00    8.52161000E-01 
S    1    1.000000
   3.25840000E-01    1.00000000E+00 
S    1    1.000000
   1.02741000E-01    1.00000000E+00 
S    1    1.000000
   3.60000000E-02    1.00000000E+00 
P    1    1.000000
   7.50000000E-01    1.00000000E+00 

14    0
S    3    1.000000
   3.38650000E+01    2.54938000E-02 
   5.09479000E+00    1.90373000E-01 
   1.15879000E+00    8.52161000E-01 
S    1    1.000000
   3.25840000E-01    1.00000000E+00 
S    1    1.000000
   1.02741000E-01    1.00000000E+00 
S    1    1.000000
   3.60000000E-02    1.00000000E+00 
P    1    1.000000
   7.50000000E-01    1.00000000E+00 

15    0
S    3    1.000000
   3.38650000E+01    2.54938000E-02 
   5.09479000E+00    1.90373000E-01 
   1.15879000E+00    8.52161000E-01 
S    1    1.000000
   3.25840000E-01    1.00000000E+00 
S    1    1.000000
   1.02741000E-01    1.00000000E+00 
S    1    1.000000
   3.60000000E-02    1.00000000E+00 
P    1    1.000000
   7.50000000E-01    1.00000000E+00 

[MO]
Sym=X
Ene=0.927533
Spin=Alpha
Occup=1
1    -4.57556254e-07
2    -3.44711052e-06
3    -1.71510638e-05
4    -5.71909773e-05
5    -0.000147134602
6    -9.03853572e-05
7    -0.000173470437
8    4.11423819e-07
9    2.03457318e-05
10    7.73901016e-16
11    2.91866473e-05
12    -1.82626848e-05
13    -7.29889627e-05
14    -3.77322863e-15
15    0.000177741736
16    -2.93979026e-05
17    1.80371888e-05
18    9.90977812e-15
19    -0.000328798187
20    3.40766645e-05
21    0.000263867983
22    -1.23572643e-13
23    -0.000143574012
24    -0.000179966227
25    6.72550075e-05
26    -1.41619997e-13
27    1.63275454e-05
28    -5.64899649e-16
29    -1.395517e-05
30    5.11843839e-16
31    -2.83854742e-05
32    2.82653127e-08
33    2.25028192e-07
34    1.03170691e-06
35    3.77650334e-06
36    6.77668731e-06
37    -4.68021082e-06
38    1.73052502e-05
39    8.59910355e-10
40    1.28631775e-06
41    1.86214675e-15
42    1.61132453e-05
43    -9.38727148e-07
44    -8.0421586e-06
45    -7.06231608e-15
46    -4.82910409e-05
47    3.37226406e-05
48    9.77762505e-07
49    1.93190978e-14
50    5.05806012e-05
51    0.000146816015
52    -3.94279566e-05
53    -1.25142805e-13
54    -0.000970177864
55    0.000196757098
56    8.41352492e-05
57    -2.4730962e-14
58    1.19801483e-06
59    -1.11153249e-16
60    -2.09129189e-06
61    -4.88849516e-16
62    -1.13226442e-06
63    -8.2287098e-08
64    -6.23274424e-07
65    -3.07694948e-06
66    -1.03540644e-05
67    -2.58463205e-05
68    -1.36353468e-05
69    -3.30261401e-05
70    -2.62174348e-06
71    -3.86271423e-06
72    2.9433125e-15
73    -1.01367251e-05
74    7.36561302e-06
75    1.74477422e-05
76    -3.10472263e-15
77    0.000128167021
78    7.64027913e-05
79    -1.95823386e-06
80    7.23672467e-15
81    -0.00033486538
82    -0.000196230027
83    5.48508624e-06
84    2.23987448e-14
85    -0.000409490914
86    -0.00041652792
87    0.000141457717
88    4.37156653e-13
89    1.11345316e-05
90    -4.97887655e-16
91    -6.9557145e-06
92    6.77775836e-16
93    3.55877503e-06
94    7.45521145e-09
95    5.83964378e-08
96    2.74457689e-07
97    9.77661395e-07
98    1.97985186e-06
99    -1.50085701e-07
100    4.07070178e-06
101    -1.60670347e-06
102    2.41266657e-07
103    -1.47641413e-15
104    -6.54021277e-06
105    5.99997887e-06
106    2.4631799e-07
107    7.27952858e-15
108    0.000141875037
109    4.21230245e-05
110    -7.09642125e-05
111    -1.29893179e-14
112    0.000231794802
113    3.36238616e-05
114    -0.000133261089
115    1.0418811e-14
116    0.000206667076
117    0.000100808456
118    0.000244456108
119    -2.87144216e-13
120    -2.21583658e-07
121    -2.28452859e-16
122    -2.17890926e-06
123    -1.81868086e-16
124    1.70908891e-06
125    0.0010971545
126    0.00835375312
127    0.0409312555
128    0.138937235
129    0.335920044
130    0.144169839
131    0.467404434
132    -0.000109037873
133    0.000119045672
134    6.1534502e-16
135    0.00428474957
136    4.34372148e-05
137    -2.36196162e-05
138    -2.923496e-15
139    -0.00050955155
140    1.16397642e-05
141    6.51016269e-05
142    3.54623803e-15
143    0.00307404441
144    -0.000330751277
145    0.000499957854
146    -4.2759295e-14
147    0.00187816278
148    -0.000407243956
149    0.000494831834
150    -1.50538893e-13
151    4.4910411e-06
152    -2.30060069e-17
153    8.03077748e-05
154    -1.11870795e-16
155    3.78618189e-06
156    -7.739947e-08
157    -1.62148479e-06
158    1.85463786e-07
159    -5.06193092e-07
160    6.50093935e-17
161    1.17198079e-05
162    1.79975116e-06
163    -7.29260503e-06
164    -4.9917743e-15
165    -0.00015316573
166    -7.20674328e-06
167    3.70918949e-05
168    1.34809777e-14
169    -0.00128161608
170    -7.98592609e-06
171    0.000335994017
172    1.10632177e-13
173    0.000223354289
174    0.000281770031
175    -0.000333005661
176    -2.62792649e-13
177    -2.84353984e-06
178    2.67705177e-16
179    3.95696957e-06
180    1.10808841e-15
181    -5.66052888e-06
182    1.25553228e-07
183    -2.45550801e-06
184    -3.88119842e-06
185    1.98933249e-06
186    6.17982016e-16
187    2.32169912e-05
188    2.14145663e-05
189    -1.80938205e-05
190    -2.37175241e-16
191    -0.00046557459
192    9.76693778e-06
193    0.000300507599
194    1.99172229e-15
195    -0.000403377802
196    -0.000239220884
197    0.000477997275
198    2.37010436e-13
199    0.000266138332
200    0.00121176764
201    0.00067957704
202    9.61020186e-13
203    -1.79988614e-05
204    -7.31365331e-16
205    3.39446235e-06
206    -2.73248737e-15
207    -1.73835e-06
208    1.30532479e-06
209    -4.60110564e-06
210    -2.38094012e-05
211    1.2032391e-05
212    8.48184639e-16
213    2.46422235e-05
214    0.000123017255
215    -4.52047504e-05
216    -1.30955641e-15
217    -9.40993476e-06
218    -0.000435400421
219    0.000398811774
220    1.00763494e-14
221    0.000708033932
222    -0.00122022471
223    -0.000810327904
224    -3.38082381e-13
225    -0.000114440228
226    -0.00158289889
227    2.76790569e-05
228    -1.7115909e-12
229    -4.28348101e-05
230    3.34907802e-16
231    -8.31975833e-06
232    -1.51389812e-16
233    3.4384537e-05
234    1.89934705e-05
235    -3.54192874e-05
236    3.30456742e-05
237    -5.34821456e-05
238    2.6986409e-15
239    0.00023256034
240    0.000185446474
241    -0.000310463175
242    -7.54787468e-15
243    2.40656909e-05
244    -0.000325112292
245    -5.64931434e-05
246    6.93101043e-15
247    -0.000142601985
248    -0.000766006325
249    0.00236171678
250    2.89916918e-13
251    -0.000475202622
252    0.000163709188
253    -0.00077347989
254    1.01774092e-12
255    -0.000174195973
256    -4.41669501e-16
257    -9.11203445e-06
258    4.84219419e-16
259    -0.000114447111
260    2.12990378e-07
261    -8.22991319e-07
262    2.25434592e-06
263    2.33614577e-06
264    -9.53171205e-16
265    1.83678528e-05
266    -7.62838611e-06
267    -1.34930516e-05
268    4.98305095e-15
269    -0.000171861776
270    -0.00010040698
271    -8.43676089e-05
272    2.60723547e-15
273    -0.0012787866
274    -0.000560617582
275    -6.57343274e-05
276    -4.3363043e-15
277    -9.97199662e-05
278    -7.75085643e-05
279    0.000230404665
280    9.76303233e-14
281    -3.67151722e-06
282    6.69224539e-16
283    6.509482e-06
284    1.24546358e-15
285    -2.80652657e-06
286    -1.02043248e-07
287    1.35848304e-05
288    1.51247094e-05
289    -7.49839905e-05
290    5.27016576e-07
291    6.69098393e-07
292    1.45942059e-15
293    1.53468161e-06
294    -1.15989666e-05
295    -9.04925469e-05
296    -0.00025819333
297    -1.23575865e-06
298    1.3792874e-06
299    -4.0876823e-16
300    -7.9621425e-07
301    1.76397168e-05
302    -4.42206363e-05
303    7.60909798e-06
304    3.22875667e-07
305    -4.40385085e-06
306    -1.18363409e-15
307    0.000248723835
308    0.000170270734
309    -9.7056105e-05
310    0.000309141918
311    7.24164658e-05
312    0.000124533839
313    3.56253344e-16
314    0.00024603307
315    0.000128335608
316    -6.37590299e-05
317    0.000269290835
318    -0.000129051713
319    -2.46188755e-07
320    1.51409064e-17
[5D]