[Molden Format]
[Atoms] (Angs)
  N      1    7      1.94018933      0.52508494      0.00000000
  N      2    7     -0.02213269      1.91541175      0.00000000
  N      3    7     -1.17840874     -1.47034963     -0.00000000
  N      4    7     -2.06912523      0.58482266      0.00000000
  N      5    7      1.87296022     -1.79117643     -0.00000000
  C      6    6      1.29026180      1.69525713      0.00000000
  C      7    6     -0.70757697      0.77138093      0.00000000
  C      8    6     -0.17789318     -0.51725539     -0.00000000
  C      9    6      1.22552274     -0.60755281     -0.00000000
  C     10    6     -2.28299045     -0.77446763     -0.00000000
  H     11    1     -2.76356369      1.31172362      0.00000000
  H     12    1     -3.27766143     -1.18864608     -0.00000000
  H     13    1      1.92065024      2.57638112      0.00000000
  H     14    1      1.35622854     -2.65035184     -0.00000000
  H     15    1      2.87602238     -1.79983315     -0.00000000
[GTO]
1    0
S    1    1.000000
   6.29348000E+03    1.96979000E-03 
S    1    1.000000
   9.49044000E+02    1.49613000E-02 
S    1    1.000000
   2.18776000E+02    7.35006000E-02 
S    1    1.000000
   6.36916000E+01    2.48937000E-01 
S    1    1.000000
   1.88282000E+01    6.02460000E-01 
S    1    1.000000
   2.72023000E+00    2.56202000E-01 
SP   3    1.000000
   3.06331000E+01    1.11906000E-01   3.83119000E-02 
   7.02614000E+00    9.21666000E-01   2.37403000E-01 
   2.11205000E+00   -2.56919000E-03   8.17592000E-01 
SP   1    1.000000
   6.84009000E-01    1.00000000E+00   1.00000000E+00 
SP   1    1.000000
   2.00878000E-01    1.00000000E+00   1.00000000E+00 
SP   1    1.000000
   6.39000000E-02    1.00000000E+00   1.00000000E+00 
SP   1    1.000000
   1.92469880E-02    1.00000000E+00   1.00000000E+00 
D    1    1.000000
   9.13000000E-01    1.00000000E+00 

2    0
S    1    1.000000
   6.29348000E+03    1.96979000E-03 
S    1    1.000000
   9.49044000E+02    1.49613000E-02 
S    1    1.000000
   2.18776000E+02    7.35006000E-02 
S    1    1.000000
   6.36916000E+01    2.48937000E-01 
S    1    1.000000
   1.88282000E+01    6.02460000E-01 
S    1    1.000000
   2.72023000E+00    2.56202000E-01 
SP   3    1.000000
   3.06331000E+01    1.11906000E-01   3.83119000E-02 
   7.02614000E+00    9.21666000E-01   2.37403000E-01 
   2.11205000E+00   -2.56919000E-03   8.17592000E-01 
SP   1    1.000000
   6.84009000E-01    1.00000000E+00   1.00000000E+00 
SP   1    1.000000
   2.00878000E-01    1.00000000E+00   1.00000000E+00 
SP   1    1.000000
   6.39000000E-02    1.00000000E+00   1.00000000E+00 
SP   1    1.000000
   1.92469880E-02    1.00000000E+00   1.00000000E+00 
D    1    1.000000
   9.13000000E-01    1.00000000E+00 

3    0
S    1    1.000000
   6.29348000E+03    1.96979000E-03 
S    1    1.000000
   9.49044000E+02    1.49613000E-02 
S    1    1.000000
   2.18776000E+02    7.35006000E-02 
S    1    1.000000
   6.36916000E+01    2.48937000E-01 
S    1    1.000000
   1.88282000E+01    6.02460000E-01 
S    1    1.000000
   2.72023000E+00    2.56202000E-01 
SP   3    1.000000
   3.06331000E+01    1.11906000E-01   3.83119000E-02 
   7.02614000E+00    9.21666000E-01   2.37403000E-01 
   2.11205000E+00   -2.56919000E-03   8.17592000E-01 
SP   1    1.000000
   6.84009000E-01    1.00000000E+00   1.00000000E+00 
SP   1    1.000000
   2.00878000E-01    1.00000000E+00   1.00000000E+00 
SP   1    1.000000
   6.39000000E-02    1.00000000E+00   1.00000000E+00 
SP   1    1.000000
   1.92469880E-02    1.00000000E+00   1.00000000E+00 
D    1    1.000000
   9.13000000E-01    1.00000000E+00 

4    0
S    1    1.000000
   6.29348000E+03    1.96979000E-03 
S    1    1.000000
   9.49044000E+02    1.49613000E-02 
S    1    1.000000
   2.18776000E+02    7.35006000E-02 
S    1    1.000000
   6.36916000E+01    2.48937000E-01 
S    1    1.000000
   1.88282000E+01    6.02460000E-01 
S    1    1.000000
   2.72023000E+00    2.56202000E-01 
SP   3    1.000000
   3.06331000E+01    1.11906000E-01   3.83119000E-02 
   7.02614000E+00    9.21666000E-01   2.37403000E-01 
   2.11205000E+00   -2.56919000E-03   8.17592000E-01 
SP   1    1.000000
   6.84009000E-01    1.00000000E+00   1.00000000E+00 
SP   1    1.000000
   2.00878000E-01    1.00000000E+00   1.00000000E+00 
SP   1    1.000000
   6.39000000E-02    1.00000000E+00   1.00000000E+00 
SP   1    1.000000
   1.92469880E-02    1.00000000E+00   1.00000000E+00 
D    1    1.000000
   9.13000000E-01    1.00000000E+00 

5    0
S    1    1.000000
   6.29348000E+03    1.96979000E-03 
S    1    1.000000
   9.49044000E+02    1.49613000E-02 
S    1    1.000000
   2.18776000E+02    7.35006000E-02 
S    1    1.000000
   6.36916000E+01    2.48937000E-01 
S    1    1.000000
   1.88282000E+01    6.02460000E-01 
S    1    1.000000
   2.72023000E+00    2.56202000E-01 
SP   3    1.000000
   3.06331000E+01    1.11906000E-01   3.83119000E-02 
   7.02614000E+00    9.21666000E-01   2.37403000E-01 
   2.11205000E+00   -2.56919000E-03   8.17592000E-01 
SP   1    1.000000
   6.84009000E-01    1.00000000E+00   1.00000000E+00 
SP   1    1.000000
   2.00878000E-01    1.00000000E+00   1.00000000E+00 
SP   1    1.000000
   6.39000000E-02    1.00000000E+00   1.00000000E+00 
SP   1    1.000000
   1.92469880E-02    1.00000000E+00   1.00000000E+00 
D    1    1.000000
   9.13000000E-01    1.00000000E+00 

6    0
S    6    1.000000
   4.56324000E+03    1.96665000E-03 
   6.82024000E+02    1.52306000E-02 
   1.54973000E+02    7.61269000E-02 
   4.44553000E+01    2.60801000E-01 
   1.30290000E+01    6.16462000E-01 
   1.82773000E+00    2.21006000E-01 
SP   3    1.000000
   2.09642000E+01    1.14660000E-01   4.02487000E-02 
   4.80331000E+00    9.19999000E-01   2.37594000E-01 
   1.45933000E+00   -3.03068000E-03   8.15854000E-01 
SP   1    1.000000
   4.83456000E-01    1.00000000E+00   1.00000000E+00 
SP   1    1.000000
   1.45585000E-01    1.00000000E+00   1.00000000E+00 
SP   1    1.000000
   4.38000000E-02    1.00000000E+00   1.00000000E+00 
SP   1    1.000000
   1.31927711E-02    1.00000000E+00   1.00000000E+00 
D    1    1.000000
   6.26000000E-01    1.00000000E+00 

7    0
S    6    1.000000
   4.56324000E+03    1.96665000E-03 
   6.82024000E+02    1.52306000E-02 
   1.54973000E+02    7.61269000E-02 
   4.44553000E+01    2.60801000E-01 
   1.30290000E+01    6.16462000E-01 
   1.82773000E+00    2.21006000E-01 
SP   3    1.000000
   2.09642000E+01    1.14660000E-01   4.02487000E-02 
   4.80331000E+00    9.19999000E-01   2.37594000E-01 
   1.45933000E+00   -3.03068000E-03   8.15854000E-01 
SP   1    1.000000
   4.83456000E-01    1.00000000E+00   1.00000000E+00 
SP   1    1.000000
   1.45585000E-01    1.00000000E+00   1.00000000E+00 
SP   1    1.000000
   4.38000000E-02    1.00000000E+00   1.00000000E+00 
SP   1    1.000000
   1.31927711E-02    1.00000000E+00   1.00000000E+00 
D    1    1.000000
   6.26000000E-01    1.00000000E+00 

8    0
S    6    1.000000
   4.56324000E+03    1.96665000E-03 
   6.82024000E+02    1.52306000E-02 
   1.54973000E+02    7.61269000E-02 
   4.44553000E+01    2.60801000E-01 
   1.30290000E+01    6.16462000E-01 
   1.82773000E+00    2.21006000E-01 
SP   3    1.000000
   2.09642000E+01    1.14660000E-01   4.02487000E-02 
   4.80331000E+00    9.19999000E-01   2.37594000E-01 
   1.45933000E+00   -3.03068000E-03   8.15854000E-01 
SP   1    1.000000
   4.83456000E-01    1.00000000E+00   1.00000000E+00 
SP   1    1.000000
   1.45585000E-01    1.00000000E+00   1.00000000E+00 
SP   1    1.000000
   4.38000000E-02    1.00000000E+00   1.00000000E+00 
SP   1    1.000000
   1.31927711E-02    1.00000000E+00   1.00000000E+00 
D    1    1.000000
   6.26000000E-01    1.00000000E+00 

9    0
S    6    1.000000
   4.56324000E+03    1.96665000E-03 
   6.82024000E+02    1.52306000E-02 
   1.54973000E+02    7.61269000E-02 
   4.44553000E+01    2.60801000E-01 
   1.30290000E+01    6.16462000E-01 
   1.82773000E+00    2.21006000E-01 
SP   3    1.000000
   2.09642000E+01    1.14660000E-01   4.02487000E-02 
   4.80331000E+00    9.19999000E-01   2.37594000E-01 
   1.45933000E+00   -3.03068000E-03   8.15854000E-01 
SP   1    1.000000
   4.83456000E-01    1.00000000E+00   1.00000000E+00 
SP   1    1.000000
   1.45585000E-01    1.00000000E+00   1.00000000E+00 
SP   1    1.000000
   4.38000000E-02    1.00000000E+00   1.00000000E+00 
SP   1    1.000000
   1.31927711E-02    1.00000000E+00   1.00000000E+00 
D    1    1.000000
   6.26000000E-01    1.00000000E+00 

10    0
S    6    1.000000
   4.56324000E+03    1.96665000E-03 
   6.82024000E+02    1.52306000E-02 
   1.54973000E+02    7.61269000E-02 
   4.44553000E+01    2.60801000E-01 
   1.30290000E+01    6.16462000E-01 
   1.82773000E+00    2.21006000E-01 
SP   3    1.000000
   2.09642000E+01    1.14660000E-01   4.02487000E-02 
   4.80331000E+00    9.19999000E-01   2.37594000E-01 
   1.45933000E+00   -3.03068000E-03   8.15854000E-01 
SP   1    1.000000
   4.83456000E-01    1.00000000E+00   1.00000000E+00 
SP   1    1.000000
   1.45585000E-01    1.00000000E+00   1.00000000E+00 
SP   1    1.000000
   4.38000000E-02    1.00000000E+00   1.00000000E+00 
SP   1    1.000000
   1.31927711E-02    1.00000000E+00   1.00000000E+00 
D    1    1.000000
   6.26000000E-01    1.00000000E+00 

11    0
S    3    1.000000
   3.38650000E+01    2.54938000E-02 
   5.09479000E+00    1.90373000E-01 
   1.15879000E+00    8.52161000E-01 
S    1    1.000000
   3.25840000E-01    1.00000000E+00 
S    1    1.000000
   1.02741000E-01    1.00000000E+00 
S    1    1.000000
   3.60000000E-02    1.00000000E+00 
P    1    1.000000
   7.50000000E-01    1.00000000E+00 

12    0
S    3    1.000000
   3.38650000E+01    2.54938000E-02 
   5.09479000E+00    1.90373000E-01 
   1.15879000E+00    8.52161000E-01 
S    1    1.000000
   3.25840000E-01    1.00000000E+00 
S    1    1.000000
   1.02741000E-01    1.00000000E+00 
S    1    1.000000
   3.60000000E-02    1.00000000E+00 
P    1    1.000000
   7.50000000E-01    1.00000000E+00 

13    0
S    3    1.000000
   3.38650000E+01    2.54938000E-02 
   5.09479000E+00    1.90373000E-01 
   1.15879000E+00    8.52161000E-01 
S    1    1.000000
   3.25840000E-01    1.00000000E+00 
S    1    1.000000
   1.02741000E-01    1.00000000E+00 
S    1    1.000000
   3.60000000E-02    1.00000000E+00 
P    1    1.000000
   7.50000000E-01    1.00000000E+00 

14    0
S    3    1.000000
   3.38650000E+01    2.54938000E-02 
   5.09479000E+00    1.90373000E-01 
   1.15879000E+00    8.52161000E-01 
S    1    1.000000
   3.25840000E-01    1.00000000E+00 
S    1    1.000000
   1.02741000E-01    1.00000000E+00 
S    1    1.000000
   3.60000000E-02    1.00000000E+00 
P    1    1.000000
   7.50000000E-01    1.00000000E+00 

15    0
S    3    1.000000
   3.38650000E+01    2.54938000E-02 
   5.09479000E+00    1.90373000E-01 
   1.15879000E+00    8.52161000E-01 
S    1    1.000000
   3.25840000E-01    1.00000000E+00 
S    1    1.000000
   1.02741000E-01    1.00000000E+00 
S    1    1.000000
   3.60000000E-02    1.00000000E+00 
P    1    1.000000
   7.50000000E-01    1.00000000E+00 

[MO]
Sym=X
Ene=0.921175
Spin=Alpha
Occup=1
1    -0.00109732461
2    -0.00835471026
3    -0.0409382772
4    -0.138944
5    -0.335997237
6    -0.143976929
7    -0.467594057
8    0.00218342563
9    6.7564328e-05
10    -6.19556592e-17
11    -0.00389012907
12    -0.00111449474
13    -6.50091747e-05
14    3.42987164e-15
15    0.000231487438
16    0.00062869633
17    7.3831483e-05
18    -8.2279102e-15
19    -0.00434756717
20    -0.000150546185
21    0.000323581562
22    5.1361366e-14
23    -0.00606633727
24    0.000918980351
25    0.000579083725
26    4.55848205e-14
27    2.68820133e-05
28    1.05587221e-16
29    8.6870877e-05
30    -1.68638494e-16
31    -8.86835734e-05
32    -4.3289411e-06
33    -3.30219254e-05
34    -0.000161359501
35    -0.000549393795
36    -0.00131335732
37    -0.000513702387
38    -0.00188035747
39    2.43652551e-05
40    -4.85273285e-06
41    -6.15974814e-16
42    -8.38038583e-05
43    -0.000106433725
44    3.27682459e-05
45    3.72909795e-15
46    -0.000301989602
47    -1.91784035e-05
48    7.61248537e-05
49    -7.97635152e-15
50    5.48531601e-06
51    0.000188231236
52    0.000222953878
53    4.50555111e-14
54    0.00264354747
55    0.000696272709
56    -0.00031932598
57    3.03579976e-14
58    3.16917845e-05
59    6.23322017e-17
60    2.10660943e-05
61    -2.27247166e-16
62    -3.69856446e-05
63    7.87858873e-08
64    5.7897413e-07
65    2.98843637e-06
66    9.55238492e-06
67    2.79945093e-05
68    2.65922504e-05
69    2.3100008e-05
70    5.52775818e-06
71    1.04667442e-06
72    4.31665218e-17
73    -2.61385281e-05
74    -2.81451761e-05
75    -1.04022874e-05
76    -2.86677171e-15
77    -3.24542626e-06
78    1.33353946e-05
79    6.7420133e-06
80    1.18920646e-14
81    -3.60935129e-05
82    -0.000176139692
83    8.14425311e-05
84    -5.10125983e-14
85    0.00114326823
86    0.000119130178
87    0.0003973537
88    2.24033941e-14
89    -8.6800203e-06
90    3.59022469e-16
91    4.9060078e-06
92    3.83995923e-17
93    -8.71190863e-06
94    1.36085215e-08
95    8.18850167e-08
96    5.57982247e-07
97    1.28543219e-06
98    8.31162138e-06
99    2.01499398e-05
100    -5.86634692e-06
101    5.01617594e-06
102    8.82025131e-07
103    -1.58406548e-16
104    -3.80956818e-05
105    -2.65628802e-05
106    -3.09342822e-06
107    -5.16289821e-16
108    0.000123233451
109    0.000103406458
110    -1.12875541e-05
111    1.42031303e-15
112    0.000584721843
113    0.000110121418
114    -1.72440067e-05
115    1.18927252e-14
116    -5.11628969e-05
117    -5.02585615e-06
118    4.28943867e-05
119    -2.43703995e-14
120    -3.1717309e-06
121    -5.60897711e-16
122    1.90998697e-06
123    9.07415808e-18
124    -8.37299901e-06
125    -4.62810459e-07
126    -3.55859932e-06
127    -1.71885939e-05
128    -5.93159483e-05
129    -0.000135062581
130    -3.25558399e-05
131    -0.000217200644
132    -3.23002364e-07
133    2.36566628e-05
134    -4.45234763e-17
135    -3.1490397e-05
136    1.54664089e-05
137    -8.10918232e-05
138    1.20895133e-15
139    -4.4928793e-06
140    -0.000114505496
141    -2.07343954e-05
142    -4.13664781e-15
143    0.000923513376
144    -0.000562567499
145    -0.000226272385
146    2.6701135e-14
147    0.00172967246
148    7.89123636e-05
149    0.000272431434
150    -1.5952593e-14
151    5.65589936e-06
152    -2.57012142e-16
153    1.4223797e-05
154    -2.70046985e-16
155    4.94469859e-05
156    -2.45834997e-05
157    4.95948271e-05
158    -1.96204335e-05
159    3.40408562e-05
160    -5.15894693e-17
161    -0.000244105258
162    -0.000226142657
163    0.00050098348
164    3.20372565e-15
165    0.000382607409
166    1.00389117e-05
167    -0.000179202506
168    -3.0637295e-15
169    -0.000406549735
170    0.000862025408
171    7.67668039e-06
172    -3.40860477e-14
173    0.000732071425
174    -0.000261814151
175    -0.00010939368
176    -6.77041695e-14
177    0.000177437546
178    -1.89970919e-16
179    3.28170671e-05
180    -2.05120814e-16
181    0.000251994175
182    -1.59603072e-06
183    6.86185491e-06
184    7.94021655e-06
185    -5.78952061e-06
186    8.04289691e-17
187    -4.88984698e-05
188    -4.91471075e-05
189    3.76052536e-05
190    6.19265923e-16
191    0.000133807945
192    0.000324255351
193    0.000129338138
194    1.24453362e-15
195    0.00205397803
196    0.000431062372
197    3.83042827e-05
198    -1.04306351e-13
199    -0.00116640193
200    -0.0016406175
201    -0.000277960563
202    8.45183116e-14
203    2.77928003e-05
204    -9.21898542e-17
205    -5.28350428e-07
206    7.96452994e-16
207    3.0198456e-05
208    -4.05881879e-06
209    9.47351127e-06
210    2.6462895e-05
211    -7.02808251e-06
212    3.58656976e-16
213    -6.72617472e-05
214    -0.000182053145
215    3.36757394e-05
216    -4.56329094e-17
217    0.000209775329
218    0.000259573328
219    -8.20110236e-05
220    -4.66949707e-15
221    0.00505620561
222    0.0021659126
223    -0.00160349002
224    1.60934066e-13
225    -0.000478002629
226    0.00223815076
227    -0.00012338693
228    -1.05199742e-13
229    3.50665243e-06
230    3.05692195e-16
231    2.78790906e-06
232    8.79958908e-16
233    -8.39902793e-05
234    -2.69184675e-05
235    5.8848445e-05
236    -2.80785219e-05
237    -2.52946278e-05
238    -1.4540861e-16
239    -0.0002813185
240    -0.000319557858
241    -0.000517812024
242    2.10947252e-15
243    0.000203373693
244    0.000360800317
245    0.000413135676
246    1.35769215e-15
247    -0.00351804691
248    0.00331597953
249    0.0024528574
250    -1.29090098e-13
251    0.000370374631
252    -0.000410621449
253    0.000896926705
254    6.05069569e-14
255    -0.000243499983
256    4.78847331e-16
257    5.80629997e-05
258    3.92369588e-16
259    0.00023521413
260    -3.72996748e-07
261    1.2614242e-06
262    2.02139526e-08
263    5.68141803e-07
264    1.16542641e-16
265    -1.37130297e-05
266    -2.37377765e-06
267    -6.93201066e-06
268    -1.206841e-15
269    1.74602762e-05
270    8.69100868e-05
271    4.01751209e-05
272    -1.55042936e-15
273    -9.62341287e-05
274    5.32702522e-05
275    0.000135724728
276    8.74747853e-15
277    0.000779946582
278    0.000216121158
279    -0.000419646466
280    -6.76631256e-15
281    9.08754966e-07
282    -2.47056771e-16
283    -4.90812677e-06
284    -8.72085655e-16
285    2.39914707e-06
286    -2.46835624e-06
287    1.76738789e-05
288    -1.59679999e-05
289    -7.5503809e-05
290    -2.0521301e-06
291    -2.81208428e-06
292    -4.29029732e-16
293    -2.95498906e-06
294    1.31535604e-05
295    6.95706273e-05
296    9.77243195e-05
297    1.89153601e-07
298    5.76523625e-07
299    2.63449262e-16
300    -1.15573583e-05
301    -0.000107508658
302    6.09420738e-05
303    -0.000629850758
304    9.31860085e-06
305    8.55332549e-05
306    -1.47904662e-16
307    -3.207927e-06
308    -2.65474611e-05
309    -0.000281061533
310    0.000142021972
311    3.30900657e-07
312    -1.04766157e-05
313    -2.99818776e-16
314    -5.57538471e-06
315    5.27725602e-05
316    0.000135586594
317    -0.000222449622
318    3.06213124e-06
319    1.2223876e-05
320    1.59918708e-16
[5D]