[Molden Format]
[Atoms] (Angs)
  N      1    7      1.94018933      0.52508494      0.00000000
  N      2    7     -0.02213269      1.91541175      0.00000000
  N      3    7     -1.17840874     -1.47034963     -0.00000000
  N      4    7     -2.06912523      0.58482266      0.00000000
  N      5    7      1.87296022     -1.79117643     -0.00000000
  C      6    6      1.29026180      1.69525713      0.00000000
  C      7    6     -0.70757697      0.77138093      0.00000000
  C      8    6     -0.17789318     -0.51725539     -0.00000000
  C      9    6      1.22552274     -0.60755281     -0.00000000
  C     10    6     -2.28299045     -0.77446763     -0.00000000
  H     11    1     -2.76356369      1.31172362      0.00000000
  H     12    1     -3.27766143     -1.18864608     -0.00000000
  H     13    1      1.92065024      2.57638112      0.00000000
  H     14    1      1.35622854     -2.65035184     -0.00000000
  H     15    1      2.87602238     -1.79983315     -0.00000000
[GTO]
1    0
S    1    1.000000
   6.29348000E+03    1.96979000E-03 
S    1    1.000000
   9.49044000E+02    1.49613000E-02 
S    1    1.000000
   2.18776000E+02    7.35006000E-02 
S    1    1.000000
   6.36916000E+01    2.48937000E-01 
S    1    1.000000
   1.88282000E+01    6.02460000E-01 
S    1    1.000000
   2.72023000E+00    2.56202000E-01 
SP   3    1.000000
   3.06331000E+01    1.11906000E-01   3.83119000E-02 
   7.02614000E+00    9.21666000E-01   2.37403000E-01 
   2.11205000E+00   -2.56919000E-03   8.17592000E-01 
SP   1    1.000000
   6.84009000E-01    1.00000000E+00   1.00000000E+00 
SP   1    1.000000
   2.00878000E-01    1.00000000E+00   1.00000000E+00 
SP   1    1.000000
   6.39000000E-02    1.00000000E+00   1.00000000E+00 
SP   1    1.000000
   1.92469880E-02    1.00000000E+00   1.00000000E+00 
D    1    1.000000
   9.13000000E-01    1.00000000E+00 

2    0
S    1    1.000000
   6.29348000E+03    1.96979000E-03 
S    1    1.000000
   9.49044000E+02    1.49613000E-02 
S    1    1.000000
   2.18776000E+02    7.35006000E-02 
S    1    1.000000
   6.36916000E+01    2.48937000E-01 
S    1    1.000000
   1.88282000E+01    6.02460000E-01 
S    1    1.000000
   2.72023000E+00    2.56202000E-01 
SP   3    1.000000
   3.06331000E+01    1.11906000E-01   3.83119000E-02 
   7.02614000E+00    9.21666000E-01   2.37403000E-01 
   2.11205000E+00   -2.56919000E-03   8.17592000E-01 
SP   1    1.000000
   6.84009000E-01    1.00000000E+00   1.00000000E+00 
SP   1    1.000000
   2.00878000E-01    1.00000000E+00   1.00000000E+00 
SP   1    1.000000
   6.39000000E-02    1.00000000E+00   1.00000000E+00 
SP   1    1.000000
   1.92469880E-02    1.00000000E+00   1.00000000E+00 
D    1    1.000000
   9.13000000E-01    1.00000000E+00 

3    0
S    1    1.000000
   6.29348000E+03    1.96979000E-03 
S    1    1.000000
   9.49044000E+02    1.49613000E-02 
S    1    1.000000
   2.18776000E+02    7.35006000E-02 
S    1    1.000000
   6.36916000E+01    2.48937000E-01 
S    1    1.000000
   1.88282000E+01    6.02460000E-01 
S    1    1.000000
   2.72023000E+00    2.56202000E-01 
SP   3    1.000000
   3.06331000E+01    1.11906000E-01   3.83119000E-02 
   7.02614000E+00    9.21666000E-01   2.37403000E-01 
   2.11205000E+00   -2.56919000E-03   8.17592000E-01 
SP   1    1.000000
   6.84009000E-01    1.00000000E+00   1.00000000E+00 
SP   1    1.000000
   2.00878000E-01    1.00000000E+00   1.00000000E+00 
SP   1    1.000000
   6.39000000E-02    1.00000000E+00   1.00000000E+00 
SP   1    1.000000
   1.92469880E-02    1.00000000E+00   1.00000000E+00 
D    1    1.000000
   9.13000000E-01    1.00000000E+00 

4    0
S    1    1.000000
   6.29348000E+03    1.96979000E-03 
S    1    1.000000
   9.49044000E+02    1.49613000E-02 
S    1    1.000000
   2.18776000E+02    7.35006000E-02 
S    1    1.000000
   6.36916000E+01    2.48937000E-01 
S    1    1.000000
   1.88282000E+01    6.02460000E-01 
S    1    1.000000
   2.72023000E+00    2.56202000E-01 
SP   3    1.000000
   3.06331000E+01    1.11906000E-01   3.83119000E-02 
   7.02614000E+00    9.21666000E-01   2.37403000E-01 
   2.11205000E+00   -2.56919000E-03   8.17592000E-01 
SP   1    1.000000
   6.84009000E-01    1.00000000E+00   1.00000000E+00 
SP   1    1.000000
   2.00878000E-01    1.00000000E+00   1.00000000E+00 
SP   1    1.000000
   6.39000000E-02    1.00000000E+00   1.00000000E+00 
SP   1    1.000000
   1.92469880E-02    1.00000000E+00   1.00000000E+00 
D    1    1.000000
   9.13000000E-01    1.00000000E+00 

5    0
S    1    1.000000
   6.29348000E+03    1.96979000E-03 
S    1    1.000000
   9.49044000E+02    1.49613000E-02 
S    1    1.000000
   2.18776000E+02    7.35006000E-02 
S    1    1.000000
   6.36916000E+01    2.48937000E-01 
S    1    1.000000
   1.88282000E+01    6.02460000E-01 
S    1    1.000000
   2.72023000E+00    2.56202000E-01 
SP   3    1.000000
   3.06331000E+01    1.11906000E-01   3.83119000E-02 
   7.02614000E+00    9.21666000E-01   2.37403000E-01 
   2.11205000E+00   -2.56919000E-03   8.17592000E-01 
SP   1    1.000000
   6.84009000E-01    1.00000000E+00   1.00000000E+00 
SP   1    1.000000
   2.00878000E-01    1.00000000E+00   1.00000000E+00 
SP   1    1.000000
   6.39000000E-02    1.00000000E+00   1.00000000E+00 
SP   1    1.000000
   1.92469880E-02    1.00000000E+00   1.00000000E+00 
D    1    1.000000
   9.13000000E-01    1.00000000E+00 

6    0
S    6    1.000000
   4.56324000E+03    1.96665000E-03 
   6.82024000E+02    1.52306000E-02 
   1.54973000E+02    7.61269000E-02 
   4.44553000E+01    2.60801000E-01 
   1.30290000E+01    6.16462000E-01 
   1.82773000E+00    2.21006000E-01 
SP   3    1.000000
   2.09642000E+01    1.14660000E-01   4.02487000E-02 
   4.80331000E+00    9.19999000E-01   2.37594000E-01 
   1.45933000E+00   -3.03068000E-03   8.15854000E-01 
SP   1    1.000000
   4.83456000E-01    1.00000000E+00   1.00000000E+00 
SP   1    1.000000
   1.45585000E-01    1.00000000E+00   1.00000000E+00 
SP   1    1.000000
   4.38000000E-02    1.00000000E+00   1.00000000E+00 
SP   1    1.000000
   1.31927711E-02    1.00000000E+00   1.00000000E+00 
D    1    1.000000
   6.26000000E-01    1.00000000E+00 

7    0
S    6    1.000000
   4.56324000E+03    1.96665000E-03 
   6.82024000E+02    1.52306000E-02 
   1.54973000E+02    7.61269000E-02 
   4.44553000E+01    2.60801000E-01 
   1.30290000E+01    6.16462000E-01 
   1.82773000E+00    2.21006000E-01 
SP   3    1.000000
   2.09642000E+01    1.14660000E-01   4.02487000E-02 
   4.80331000E+00    9.19999000E-01   2.37594000E-01 
   1.45933000E+00   -3.03068000E-03   8.15854000E-01 
SP   1    1.000000
   4.83456000E-01    1.00000000E+00   1.00000000E+00 
SP   1    1.000000
   1.45585000E-01    1.00000000E+00   1.00000000E+00 
SP   1    1.000000
   4.38000000E-02    1.00000000E+00   1.00000000E+00 
SP   1    1.000000
   1.31927711E-02    1.00000000E+00   1.00000000E+00 
D    1    1.000000
   6.26000000E-01    1.00000000E+00 

8    0
S    6    1.000000
   4.56324000E+03    1.96665000E-03 
   6.82024000E+02    1.52306000E-02 
   1.54973000E+02    7.61269000E-02 
   4.44553000E+01    2.60801000E-01 
   1.30290000E+01    6.16462000E-01 
   1.82773000E+00    2.21006000E-01 
SP   3    1.000000
   2.09642000E+01    1.14660000E-01   4.02487000E-02 
   4.80331000E+00    9.19999000E-01   2.37594000E-01 
   1.45933000E+00   -3.03068000E-03   8.15854000E-01 
SP   1    1.000000
   4.83456000E-01    1.00000000E+00   1.00000000E+00 
SP   1    1.000000
   1.45585000E-01    1.00000000E+00   1.00000000E+00 
SP   1    1.000000
   4.38000000E-02    1.00000000E+00   1.00000000E+00 
SP   1    1.000000
   1.31927711E-02    1.00000000E+00   1.00000000E+00 
D    1    1.000000
   6.26000000E-01    1.00000000E+00 

9    0
S    6    1.000000
   4.56324000E+03    1.96665000E-03 
   6.82024000E+02    1.52306000E-02 
   1.54973000E+02    7.61269000E-02 
   4.44553000E+01    2.60801000E-01 
   1.30290000E+01    6.16462000E-01 
   1.82773000E+00    2.21006000E-01 
SP   3    1.000000
   2.09642000E+01    1.14660000E-01   4.02487000E-02 
   4.80331000E+00    9.19999000E-01   2.37594000E-01 
   1.45933000E+00   -3.03068000E-03   8.15854000E-01 
SP   1    1.000000
   4.83456000E-01    1.00000000E+00   1.00000000E+00 
SP   1    1.000000
   1.45585000E-01    1.00000000E+00   1.00000000E+00 
SP   1    1.000000
   4.38000000E-02    1.00000000E+00   1.00000000E+00 
SP   1    1.000000
   1.31927711E-02    1.00000000E+00   1.00000000E+00 
D    1    1.000000
   6.26000000E-01    1.00000000E+00 

10    0
S    6    1.000000
   4.56324000E+03    1.96665000E-03 
   6.82024000E+02    1.52306000E-02 
   1.54973000E+02    7.61269000E-02 
   4.44553000E+01    2.60801000E-01 
   1.30290000E+01    6.16462000E-01 
   1.82773000E+00    2.21006000E-01 
SP   3    1.000000
   2.09642000E+01    1.14660000E-01   4.02487000E-02 
   4.80331000E+00    9.19999000E-01   2.37594000E-01 
   1.45933000E+00   -3.03068000E-03   8.15854000E-01 
SP   1    1.000000
   4.83456000E-01    1.00000000E+00   1.00000000E+00 
SP   1    1.000000
   1.45585000E-01    1.00000000E+00   1.00000000E+00 
SP   1    1.000000
   4.38000000E-02    1.00000000E+00   1.00000000E+00 
SP   1    1.000000
   1.31927711E-02    1.00000000E+00   1.00000000E+00 
D    1    1.000000
   6.26000000E-01    1.00000000E+00 

11    0
S    3    1.000000
   3.38650000E+01    2.54938000E-02 
   5.09479000E+00    1.90373000E-01 
   1.15879000E+00    8.52161000E-01 
S    1    1.000000
   3.25840000E-01    1.00000000E+00 
S    1    1.000000
   1.02741000E-01    1.00000000E+00 
S    1    1.000000
   3.60000000E-02    1.00000000E+00 
P    1    1.000000
   7.50000000E-01    1.00000000E+00 

12    0
S    3    1.000000
   3.38650000E+01    2.54938000E-02 
   5.09479000E+00    1.90373000E-01 
   1.15879000E+00    8.52161000E-01 
S    1    1.000000
   3.25840000E-01    1.00000000E+00 
S    1    1.000000
   1.02741000E-01    1.00000000E+00 
S    1    1.000000
   3.60000000E-02    1.00000000E+00 
P    1    1.000000
   7.50000000E-01    1.00000000E+00 

13    0
S    3    1.000000
   3.38650000E+01    2.54938000E-02 
   5.09479000E+00    1.90373000E-01 
   1.15879000E+00    8.52161000E-01 
S    1    1.000000
   3.25840000E-01    1.00000000E+00 
S    1    1.000000
   1.02741000E-01    1.00000000E+00 
S    1    1.000000
   3.60000000E-02    1.00000000E+00 
P    1    1.000000
   7.50000000E-01    1.00000000E+00 

14    0
S    3    1.000000
   3.38650000E+01    2.54938000E-02 
   5.09479000E+00    1.90373000E-01 
   1.15879000E+00    8.52161000E-01 
S    1    1.000000
   3.25840000E-01    1.00000000E+00 
S    1    1.000000
   1.02741000E-01    1.00000000E+00 
S    1    1.000000
   3.60000000E-02    1.00000000E+00 
P    1    1.000000
   7.50000000E-01    1.00000000E+00 

15    0
S    3    1.000000
   3.38650000E+01    2.54938000E-02 
   5.09479000E+00    1.90373000E-01 
   1.15879000E+00    8.52161000E-01 
S    1    1.000000
   3.25840000E-01    1.00000000E+00 
S    1    1.000000
   1.02741000E-01    1.00000000E+00 
S    1    1.000000
   3.60000000E-02    1.00000000E+00 
P    1    1.000000
   7.50000000E-01    1.00000000E+00 

[MO]
Sym=X
Ene=0.92572
Spin=Alpha
Occup=1
1    1.28629905e-08
2    1.06325187e-07
3    4.60354743e-07
4    1.79716909e-06
5    2.33234643e-06
6    -5.4941446e-06
7    9.95428755e-06
8    1.465985e-06
9    2.30897576e-06
10    4.42450776e-16
11    1.11898098e-05
12    -8.873077e-06
13    -1.37868841e-05
14    4.6797118e-15
15    1.38701985e-05
16    -2.62106793e-05
17    8.71037545e-05
18    -6.81046947e-15
19    -1.93147325e-05
20    -8.01432779e-05
21    0.000163444944
22    7.80740608e-14
23    -0.000349854779
24    -8.35339215e-05
25    9.01507332e-05
26    6.64588809e-14
27    2.23367154e-06
28    2.13228862e-16
29    -2.39715827e-06
30    -2.18997747e-16
31    -1.33506006e-06
32    -2.17116796e-07
33    -1.632919e-06
34    -8.14339922e-06
35    -2.70797685e-05
36    -7.03906144e-05
37    -4.53346864e-05
38    -8.00421287e-05
39    1.38800474e-05
40    7.9078696e-06
41    -2.30456914e-16
42    3.06458569e-06
43    -3.60581509e-05
44    -4.02415074e-05
45    4.49980508e-15
46    0.000286795726
47    -7.76050898e-05
48    -9.31669342e-05
49    -1.09448562e-14
50    2.28272673e-05
51    4.5537704e-05
52    -5.96817423e-05
53    7.63159992e-14
54    -0.000799791655
55    0.000307849462
56    6.54672335e-05
57    6.00248621e-14
58    3.12177889e-05
59    1.33867755e-16
60    -1.28331165e-05
61    6.16016885e-16
62    2.31145307e-06
63    -5.15776766e-07
64    -3.87220633e-06
65    -1.93661817e-05
66    -6.41987165e-05
67    -0.000168438653
68    -0.000113653234
69    -0.000188973126
70    8.663711e-06
71    -2.17652898e-05
72    -1.93765381e-15
73    6.11712725e-05
74    -4.00043177e-05
75    6.80499576e-05
76    -2.32624525e-15
77    0.000220010523
78    2.75860585e-05
79    5.4515374e-05
80    1.04845885e-15
81    -0.000147274245
82    -0.00018987057
83    2.08673999e-06
84    -4.62770296e-14
85    -0.000731918851
86    -0.000150808568
87    -3.99353598e-05
88    -1.23329307e-13
89    -2.41774529e-05
90    -4.43164743e-16
91    -1.8743461e-05
92    1.72623589e-16
93    -5.76327349e-06
94    0.00109719405
95    0.00835403551
96    0.0409327615
97    0.138940245
98    0.335928515
99    0.144068704
100    0.467476602
101    3.36644494e-05
102    -4.62279044e-05
103    -1.2826638e-15
104    0.00429730953
105    3.90546109e-05
106    -3.13853284e-05
107    -1.79064665e-15
108    -0.000541906591
109    -6.73560105e-05
110    4.39684818e-05
111    -5.72379387e-15
112    0.00232138931
113    0.000672104327
114    -0.000470293669
115    1.84292069e-14
116    0.00228011703
117    0.000702264014
118    -0.00021462131
119    6.91116079e-14
120    -5.6722733e-05
121    9.52790253e-17
122    1.92175349e-05
123    2.60351181e-16
124    1.21882612e-06
125    -8.40063197e-09
126    -5.67521997e-08
127    -3.29983416e-07
128    -9.18198593e-07
129    -3.94436166e-06
130    -7.16572126e-06
131    3.27589475e-07
132    1.60026113e-06
133    -6.30365602e-07
134    1.22206969e-17
135    1.1463046e-05
136    -6.06697166e-06
137    2.6628172e-06
138    1.99526169e-15
139    -7.29721097e-06
140    -3.79951942e-05
141    -3.53679716e-05
142    -9.59140699e-16
143    9.41154528e-05
144    2.81607149e-05
145    -4.29713359e-05
146    2.63871003e-14
147    0.000142460286
148    0.000124625374
149    -1.13592713e-05
150    3.89984457e-14
151    -2.03897533e-06
152    -8.17984866e-19
153    -2.13594618e-07
154    -4.54112143e-17
155    9.21127059e-07
156    -1.3045403e-07
157    -1.76512297e-06
158    1.36425535e-07
159    1.11205448e-08
160    2.80418435e-16
161    9.75068508e-06
162    -1.36170537e-05
163    2.87993942e-07
164    5.42887279e-15
165    -0.0001194469
166    -3.21495176e-05
167    7.47914834e-05
168    -2.98290652e-15
169    -0.00108688388
170    0.000232667641
171    0.000256058243
172    -6.29801642e-14
173    -0.000548098313
174    -4.18636212e-05
175    3.81538157e-05
176    4.15735654e-14
177    1.31740315e-06
178    -7.57839674e-16
179    2.25243e-06
180    -7.31596425e-16
181    4.60484671e-06
182    1.55025805e-05
183    -2.85550521e-05
184    -5.72567686e-05
185    -8.32826016e-06
186    -6.80887396e-16
187    0.000207440169
188    -0.000323389319
189    2.78615114e-05
190    -8.43151573e-17
191    -5.66746429e-05
192    -0.000121486574
193    -0.000464999663
194    6.31821633e-17
195    -0.001878167
196    0.000983582734
197    0.000890677176
198    -1.73346152e-13
199    0.000301448847
200    -0.000172223092
201    0.000353235596
202    -2.71518719e-13
203    2.28630641e-06
204    1.214514e-15
205    1.47301472e-06
206    1.80386003e-15
207    0.000190792648
208    2.10765465e-06
209    -7.45896597e-06
210    1.35291008e-05
211    -1.36689056e-05
212    -1.54649225e-15
213    5.85889792e-05
214    -8.50348368e-05
215    9.14641278e-05
216    8.86128131e-16
217    -0.000157074921
218    0.000791978771
219    -0.000165277472
220    -1.0277305e-14
221    0.00459639662
222    0.0014094981
223    -0.000472295543
224    2.38215193e-13
225    0.00073963429
226    0.000241871683
227    -0.00114122155
228    4.11585181e-13
229    -4.48578313e-05
230    1.71473619e-16
231    5.00937374e-07
232    1.1535426e-15
233    -3.94805809e-05
234    6.26839574e-07
235    -4.62037108e-06
236    5.31237561e-06
237    -6.56574309e-07
238    -3.62691233e-16
239    3.29523129e-05
240    -4.19224747e-05
241    2.13788767e-06
242    4.77846634e-15
243    -0.000496154617
244    0.000402326765
245    2.79070749e-05
246    -1.36100907e-15
247    -0.00346480508
248    0.00114809932
249    0.000292721201
250    -1.71930081e-13
251    0.000267643533
252    2.44736711e-05
253    0.000754772145
254    -2.39668797e-13
255    -1.11151618e-05
256    8.87066248e-16
257    -1.30421057e-06
258    6.30062187e-16
259    1.96183884e-05
260    1.54570359e-05
261    -2.57108134e-05
262    1.85071769e-05
263    5.33696984e-05
264    -6.92199354e-16
265    0.000184222693
266    1.42804643e-05
267    0.000337636708
268    -5.74613828e-15
269    -0.000262389655
270    0.000145402948
271    -8.57655096e-06
272    -1.79002099e-15
273    -8.76573263e-05
274    -0.000109557987
275    1.0356167e-05
276    -5.65969905e-15
277    -0.000950859943
278    -0.000304968265
279    0.000112505734
280    2.42523683e-15
281    1.99675447e-05
282    -2.83864551e-16
283    7.42461304e-06
284    -1.53793917e-15
285    -0.00019853002
286    0.000238748935
287    8.70018016e-05
288    0.000189762414
289    0.000392331577
290    8.5194011e-05
291    -9.15368987e-05
292    -7.28913884e-16
293    8.33259955e-06
294    0.000163387357
295    -2.94424472e-05
296    -0.000136909962
297    5.72994316e-05
298    4.27310751e-05
299    -1.15803272e-15
300    3.30774109e-07
301    5.70231313e-06
302    -3.03604946e-05
303    -0.000123384716
304    -1.53466191e-06
305    -2.59719578e-06
306    1.29796687e-15
307    1.61416647e-06
308    -1.9492213e-05
309    -3.69628427e-05
310    7.1184129e-05
311    -1.63887616e-06
312    -4.67040662e-06
313    -1.24083455e-16
314    1.03374191e-06
315    9.60069837e-06
316    -3.61078824e-05
317    -0.000149714291
318    6.39484049e-07
319    -1.70032502e-06
320    4.32783644e-16
[5D]