[Molden Format]
[Atoms] (Angs)
  N      1    7      1.94018933      0.52508494      0.00000000
  N      2    7     -0.02213269      1.91541175      0.00000000
  N      3    7     -1.17840874     -1.47034963     -0.00000000
  N      4    7     -2.06912523      0.58482266      0.00000000
  N      5    7      1.87296022     -1.79117643     -0.00000000
  C      6    6      1.29026180      1.69525713      0.00000000
  C      7    6     -0.70757697      0.77138093      0.00000000
  C      8    6     -0.17789318     -0.51725539     -0.00000000
  C      9    6      1.22552274     -0.60755281     -0.00000000
  C     10    6     -2.28299045     -0.77446763     -0.00000000
  H     11    1     -2.76356369      1.31172362      0.00000000
  H     12    1     -3.27766143     -1.18864608     -0.00000000
  H     13    1      1.92065024      2.57638112      0.00000000
  H     14    1      1.35622854     -2.65035184     -0.00000000
  H     15    1      2.87602238     -1.79983315     -0.00000000
[GTO]
1    0
S    1    1.000000
   6.29348000E+03    1.96979000E-03 
S    1    1.000000
   9.49044000E+02    1.49613000E-02 
S    1    1.000000
   2.18776000E+02    7.35006000E-02 
S    1    1.000000
   6.36916000E+01    2.48937000E-01 
S    1    1.000000
   1.88282000E+01    6.02460000E-01 
S    1    1.000000
   2.72023000E+00    2.56202000E-01 
SP   3    1.000000
   3.06331000E+01    1.11906000E-01   3.83119000E-02 
   7.02614000E+00    9.21666000E-01   2.37403000E-01 
   2.11205000E+00   -2.56919000E-03   8.17592000E-01 
SP   1    1.000000
   6.84009000E-01    1.00000000E+00   1.00000000E+00 
SP   1    1.000000
   2.00878000E-01    1.00000000E+00   1.00000000E+00 
SP   1    1.000000
   6.39000000E-02    1.00000000E+00   1.00000000E+00 
SP   1    1.000000
   1.92469880E-02    1.00000000E+00   1.00000000E+00 
D    1    1.000000
   9.13000000E-01    1.00000000E+00 

2    0
S    1    1.000000
   6.29348000E+03    1.96979000E-03 
S    1    1.000000
   9.49044000E+02    1.49613000E-02 
S    1    1.000000
   2.18776000E+02    7.35006000E-02 
S    1    1.000000
   6.36916000E+01    2.48937000E-01 
S    1    1.000000
   1.88282000E+01    6.02460000E-01 
S    1    1.000000
   2.72023000E+00    2.56202000E-01 
SP   3    1.000000
   3.06331000E+01    1.11906000E-01   3.83119000E-02 
   7.02614000E+00    9.21666000E-01   2.37403000E-01 
   2.11205000E+00   -2.56919000E-03   8.17592000E-01 
SP   1    1.000000
   6.84009000E-01    1.00000000E+00   1.00000000E+00 
SP   1    1.000000
   2.00878000E-01    1.00000000E+00   1.00000000E+00 
SP   1    1.000000
   6.39000000E-02    1.00000000E+00   1.00000000E+00 
SP   1    1.000000
   1.92469880E-02    1.00000000E+00   1.00000000E+00 
D    1    1.000000
   9.13000000E-01    1.00000000E+00 

3    0
S    1    1.000000
   6.29348000E+03    1.96979000E-03 
S    1    1.000000
   9.49044000E+02    1.49613000E-02 
S    1    1.000000
   2.18776000E+02    7.35006000E-02 
S    1    1.000000
   6.36916000E+01    2.48937000E-01 
S    1    1.000000
   1.88282000E+01    6.02460000E-01 
S    1    1.000000
   2.72023000E+00    2.56202000E-01 
SP   3    1.000000
   3.06331000E+01    1.11906000E-01   3.83119000E-02 
   7.02614000E+00    9.21666000E-01   2.37403000E-01 
   2.11205000E+00   -2.56919000E-03   8.17592000E-01 
SP   1    1.000000
   6.84009000E-01    1.00000000E+00   1.00000000E+00 
SP   1    1.000000
   2.00878000E-01    1.00000000E+00   1.00000000E+00 
SP   1    1.000000
   6.39000000E-02    1.00000000E+00   1.00000000E+00 
SP   1    1.000000
   1.92469880E-02    1.00000000E+00   1.00000000E+00 
D    1    1.000000
   9.13000000E-01    1.00000000E+00 

4    0
S    1    1.000000
   6.29348000E+03    1.96979000E-03 
S    1    1.000000
   9.49044000E+02    1.49613000E-02 
S    1    1.000000
   2.18776000E+02    7.35006000E-02 
S    1    1.000000
   6.36916000E+01    2.48937000E-01 
S    1    1.000000
   1.88282000E+01    6.02460000E-01 
S    1    1.000000
   2.72023000E+00    2.56202000E-01 
SP   3    1.000000
   3.06331000E+01    1.11906000E-01   3.83119000E-02 
   7.02614000E+00    9.21666000E-01   2.37403000E-01 
   2.11205000E+00   -2.56919000E-03   8.17592000E-01 
SP   1    1.000000
   6.84009000E-01    1.00000000E+00   1.00000000E+00 
SP   1    1.000000
   2.00878000E-01    1.00000000E+00   1.00000000E+00 
SP   1    1.000000
   6.39000000E-02    1.00000000E+00   1.00000000E+00 
SP   1    1.000000
   1.92469880E-02    1.00000000E+00   1.00000000E+00 
D    1    1.000000
   9.13000000E-01    1.00000000E+00 

5    0
S    1    1.000000
   6.29348000E+03    1.96979000E-03 
S    1    1.000000
   9.49044000E+02    1.49613000E-02 
S    1    1.000000
   2.18776000E+02    7.35006000E-02 
S    1    1.000000
   6.36916000E+01    2.48937000E-01 
S    1    1.000000
   1.88282000E+01    6.02460000E-01 
S    1    1.000000
   2.72023000E+00    2.56202000E-01 
SP   3    1.000000
   3.06331000E+01    1.11906000E-01   3.83119000E-02 
   7.02614000E+00    9.21666000E-01   2.37403000E-01 
   2.11205000E+00   -2.56919000E-03   8.17592000E-01 
SP   1    1.000000
   6.84009000E-01    1.00000000E+00   1.00000000E+00 
SP   1    1.000000
   2.00878000E-01    1.00000000E+00   1.00000000E+00 
SP   1    1.000000
   6.39000000E-02    1.00000000E+00   1.00000000E+00 
SP   1    1.000000
   1.92469880E-02    1.00000000E+00   1.00000000E+00 
D    1    1.000000
   9.13000000E-01    1.00000000E+00 

6    0
S    6    1.000000
   4.56324000E+03    1.96665000E-03 
   6.82024000E+02    1.52306000E-02 
   1.54973000E+02    7.61269000E-02 
   4.44553000E+01    2.60801000E-01 
   1.30290000E+01    6.16462000E-01 
   1.82773000E+00    2.21006000E-01 
SP   3    1.000000
   2.09642000E+01    1.14660000E-01   4.02487000E-02 
   4.80331000E+00    9.19999000E-01   2.37594000E-01 
   1.45933000E+00   -3.03068000E-03   8.15854000E-01 
SP   1    1.000000
   4.83456000E-01    1.00000000E+00   1.00000000E+00 
SP   1    1.000000
   1.45585000E-01    1.00000000E+00   1.00000000E+00 
SP   1    1.000000
   4.38000000E-02    1.00000000E+00   1.00000000E+00 
SP   1    1.000000
   1.31927711E-02    1.00000000E+00   1.00000000E+00 
D    1    1.000000
   6.26000000E-01    1.00000000E+00 

7    0
S    6    1.000000
   4.56324000E+03    1.96665000E-03 
   6.82024000E+02    1.52306000E-02 
   1.54973000E+02    7.61269000E-02 
   4.44553000E+01    2.60801000E-01 
   1.30290000E+01    6.16462000E-01 
   1.82773000E+00    2.21006000E-01 
SP   3    1.000000
   2.09642000E+01    1.14660000E-01   4.02487000E-02 
   4.80331000E+00    9.19999000E-01   2.37594000E-01 
   1.45933000E+00   -3.03068000E-03   8.15854000E-01 
SP   1    1.000000
   4.83456000E-01    1.00000000E+00   1.00000000E+00 
SP   1    1.000000
   1.45585000E-01    1.00000000E+00   1.00000000E+00 
SP   1    1.000000
   4.38000000E-02    1.00000000E+00   1.00000000E+00 
SP   1    1.000000
   1.31927711E-02    1.00000000E+00   1.00000000E+00 
D    1    1.000000
   6.26000000E-01    1.00000000E+00 

8    0
S    6    1.000000
   4.56324000E+03    1.96665000E-03 
   6.82024000E+02    1.52306000E-02 
   1.54973000E+02    7.61269000E-02 
   4.44553000E+01    2.60801000E-01 
   1.30290000E+01    6.16462000E-01 
   1.82773000E+00    2.21006000E-01 
SP   3    1.000000
   2.09642000E+01    1.14660000E-01   4.02487000E-02 
   4.80331000E+00    9.19999000E-01   2.37594000E-01 
   1.45933000E+00   -3.03068000E-03   8.15854000E-01 
SP   1    1.000000
   4.83456000E-01    1.00000000E+00   1.00000000E+00 
SP   1    1.000000
   1.45585000E-01    1.00000000E+00   1.00000000E+00 
SP   1    1.000000
   4.38000000E-02    1.00000000E+00   1.00000000E+00 
SP   1    1.000000
   1.31927711E-02    1.00000000E+00   1.00000000E+00 
D    1    1.000000
   6.26000000E-01    1.00000000E+00 

9    0
S    6    1.000000
   4.56324000E+03    1.96665000E-03 
   6.82024000E+02    1.52306000E-02 
   1.54973000E+02    7.61269000E-02 
   4.44553000E+01    2.60801000E-01 
   1.30290000E+01    6.16462000E-01 
   1.82773000E+00    2.21006000E-01 
SP   3    1.000000
   2.09642000E+01    1.14660000E-01   4.02487000E-02 
   4.80331000E+00    9.19999000E-01   2.37594000E-01 
   1.45933000E+00   -3.03068000E-03   8.15854000E-01 
SP   1    1.000000
   4.83456000E-01    1.00000000E+00   1.00000000E+00 
SP   1    1.000000
   1.45585000E-01    1.00000000E+00   1.00000000E+00 
SP   1    1.000000
   4.38000000E-02    1.00000000E+00   1.00000000E+00 
SP   1    1.000000
   1.31927711E-02    1.00000000E+00   1.00000000E+00 
D    1    1.000000
   6.26000000E-01    1.00000000E+00 

10    0
S    6    1.000000
   4.56324000E+03    1.96665000E-03 
   6.82024000E+02    1.52306000E-02 
   1.54973000E+02    7.61269000E-02 
   4.44553000E+01    2.60801000E-01 
   1.30290000E+01    6.16462000E-01 
   1.82773000E+00    2.21006000E-01 
SP   3    1.000000
   2.09642000E+01    1.14660000E-01   4.02487000E-02 
   4.80331000E+00    9.19999000E-01   2.37594000E-01 
   1.45933000E+00   -3.03068000E-03   8.15854000E-01 
SP   1    1.000000
   4.83456000E-01    1.00000000E+00   1.00000000E+00 
SP   1    1.000000
   1.45585000E-01    1.00000000E+00   1.00000000E+00 
SP   1    1.000000
   4.38000000E-02    1.00000000E+00   1.00000000E+00 
SP   1    1.000000
   1.31927711E-02    1.00000000E+00   1.00000000E+00 
D    1    1.000000
   6.26000000E-01    1.00000000E+00 

11    0
S    3    1.000000
   3.38650000E+01    2.54938000E-02 
   5.09479000E+00    1.90373000E-01 
   1.15879000E+00    8.52161000E-01 
S    1    1.000000
   3.25840000E-01    1.00000000E+00 
S    1    1.000000
   1.02741000E-01    1.00000000E+00 
S    1    1.000000
   3.60000000E-02    1.00000000E+00 
P    1    1.000000
   7.50000000E-01    1.00000000E+00 

12    0
S    3    1.000000
   3.38650000E+01    2.54938000E-02 
   5.09479000E+00    1.90373000E-01 
   1.15879000E+00    8.52161000E-01 
S    1    1.000000
   3.25840000E-01    1.00000000E+00 
S    1    1.000000
   1.02741000E-01    1.00000000E+00 
S    1    1.000000
   3.60000000E-02    1.00000000E+00 
P    1    1.000000
   7.50000000E-01    1.00000000E+00 

13    0
S    3    1.000000
   3.38650000E+01    2.54938000E-02 
   5.09479000E+00    1.90373000E-01 
   1.15879000E+00    8.52161000E-01 
S    1    1.000000
   3.25840000E-01    1.00000000E+00 
S    1    1.000000
   1.02741000E-01    1.00000000E+00 
S    1    1.000000
   3.60000000E-02    1.00000000E+00 
P    1    1.000000
   7.50000000E-01    1.00000000E+00 

14    0
S    3    1.000000
   3.38650000E+01    2.54938000E-02 
   5.09479000E+00    1.90373000E-01 
   1.15879000E+00    8.52161000E-01 
S    1    1.000000
   3.25840000E-01    1.00000000E+00 
S    1    1.000000
   1.02741000E-01    1.00000000E+00 
S    1    1.000000
   3.60000000E-02    1.00000000E+00 
P    1    1.000000
   7.50000000E-01    1.00000000E+00 

15    0
S    3    1.000000
   3.38650000E+01    2.54938000E-02 
   5.09479000E+00    1.90373000E-01 
   1.15879000E+00    8.52161000E-01 
S    1    1.000000
   3.25840000E-01    1.00000000E+00 
S    1    1.000000
   1.02741000E-01    1.00000000E+00 
S    1    1.000000
   3.60000000E-02    1.00000000E+00 
P    1    1.000000
   7.50000000E-01    1.00000000E+00 

[MO]
Sym=X
Ene=0.920649
Spin=Alpha
Occup=1
1    -7.24308722e-08
2    -5.58187299e-07
3    -2.6862718e-06
4    -9.30982771e-06
5    -2.09939532e-05
6    -5.05269359e-06
7    -3.39862167e-05
8    -1.7917147e-06
9    1.73257089e-06
10    -1.28807625e-15
11    -6.96726495e-06
12    9.24028223e-06
13    -4.33766823e-06
14    -2.46374224e-16
15    1.61623351e-05
16    4.59680929e-05
17    -4.54592196e-05
18    -4.60236064e-15
19    5.19698348e-06
20    -0.000177557809
21    0.000176202802
22    4.80689296e-14
23    0.000395251919
24    -0.000518559113
25    0.000778820816
26    6.30823015e-14
27    -9.30916036e-07
28    5.10870245e-16
29    6.28935393e-07
30    -6.39634457e-17
31    -1.21820228e-05
32    -2.84532142e-07
33    -2.20141907e-06
34    -1.0533481e-05
35    -3.67342335e-05
36    -8.04644003e-05
37    -8.02324498e-06
38    -0.000139757411
39    -5.55867899e-06
40    -7.12850316e-06
41    -9.46453386e-16
42    -5.29898669e-05
43    3.24162117e-05
44    5.07027171e-05
45    3.15300579e-15
46    3.19969071e-06
47    -6.58536856e-05
48    -1.73322832e-05
49    -9.43486592e-15
50    -0.000253237014
51    -0.000103191697
52    4.13197986e-07
53    5.91140081e-14
54    -0.0015196181
55    0.000102110609
56    0.000214992732
57    2.44632274e-15
58    -1.3934685e-05
59    5.60339594e-17
60    7.66093239e-06
61    1.76206521e-16
62    1.8212939e-05
63    -0.00109740941
64    -0.00835529003
65    -0.040941631
66    -0.138951858
67    -0.336026303
68    -0.143870394
69    -0.467689483
70    0.000184511149
71    -0.002239708
72    -1.03237356e-15
73    -0.0038117561
74    -7.76271886e-05
75    0.0011579989
76    1.37290584e-15
77    0.000466760899
78    3.99485384e-05
79    -0.000584871448
80    -3.02304344e-15
81    -0.00441584684
82    -0.000498721857
83    6.10152143e-06
84    -6.16085412e-15
85    -0.00537696929
86    -0.000902776455
87    -0.000871753539
88    -2.25950074e-13
89    6.67506721e-05
90    8.34019448e-17
91    9.20639418e-05
92    -4.22406017e-16
93    0.000116456999
94    -5.10036178e-07
95    -3.96039359e-06
96    -1.88554316e-05
97    -6.61321288e-05
98    -0.000140969102
99    2.74962146e-06
100    -0.000262821625
101    1.03871592e-06
102    -2.29164741e-05
103    1.03787575e-15
104    -0.000119663358
105    -1.3759687e-05
106    9.19706221e-05
107    -2.92103718e-15
108    7.25418509e-05
109    0.000107288243
110    -6.80637548e-05
111    9.13664884e-15
112    0.000641712445
113    7.6112066e-05
114    -0.000226477058
115    -5.68672782e-15
116    0.00294991758
117    0.00043201196
118    -0.00050572446
119    1.42895964e-13
120    -2.57467565e-05
121    1.94802074e-16
122    1.40399125e-05
123    -1.06327688e-16
124    3.0699647e-05
125    -8.12346205e-08
126    -6.299967e-07
127    -3.00457091e-06
128    -1.05128284e-05
129    -2.25217843e-05
130    9.71243137e-07
131    -4.15219927e-05
132    6.41501505e-07
133    7.4430636e-06
134    -7.02038938e-16
135    -2.0685691e-05
136    1.03160578e-06
137    -3.8947754e-05
138    -8.91636573e-16
139    -9.38449051e-06
140    6.5252755e-06
141    7.02419796e-05
142    -3.04323822e-15
143    0.0011834279
144    0.000253126113
145    0.000187823813
146    1.62352731e-14
147    0.00273369746
148    -0.000244969659
149    0.000435946008
150    7.56772573e-14
151    8.65297413e-06
152    -1.62113919e-16
153    3.92656745e-06
154    1.00737067e-16
155    1.21340279e-05
156    -1.45853933e-07
157    1.10064765e-06
158    -1.37573152e-06
159    2.76675507e-06
160    -6.75143706e-16
161    -8.96546977e-06
162    1.4048654e-05
163    -9.35125663e-06
164    2.17551393e-15
165    0.000115179716
166    -7.71037295e-05
167    -8.65361872e-06
168    -9.75531755e-15
169    -0.00147855879
170    0.000169405244
171    0.000572945015
172    -4.44411023e-14
173    -0.00763744285
174    0.000880678018
175    0.000785628614
176    1.34302202e-13
177    6.94898472e-06
178    4.08204627e-16
179    -6.17142865e-06
180    -5.9761319e-16
181    -7.66841905e-06
182    -3.74378397e-06
183    1.05914105e-05
184    9.16519125e-06
185    -2.00905581e-05
186    -1.7927249e-16
187    -9.04387691e-05
188    -3.58970467e-05
189    0.000157845694
190    -3.08478876e-16
191    -9.08055955e-05
192    8.27096118e-05
193    -0.000120646066
194    -4.98467927e-16
195    0.00604574266
196    0.00132880616
197    -0.000630481598
198    -1.07378877e-13
199    0.00336464071
200    0.00227904509
201    0.00135222762
202    -4.70179685e-13
203    8.80289939e-05
204    5.50906512e-16
205    -2.78325437e-06
206    1.0765247e-15
207    3.76075634e-05
208    -1.88603816e-05
209    6.31313104e-05
210    8.28291985e-06
211    1.04064497e-05
212    -1.06467954e-15
213    -0.000265923859
214    0.000416552406
215    0.000456919226
216    -8.1156259e-16
217    2.20268135e-05
218    -0.000671325705
219    -0.000223840168
220    -4.45804823e-15
221    -0.000115371237
222    0.000135625974
223    -0.00463258582
224    1.44085936e-13
225    0.00515777016
226    -0.00233890089
227    -0.00120048341
228    8.84106375e-13
229    -0.000318630768
230    -9.92641715e-17
231    7.80355966e-05
232    -9.45303606e-16
233    -7.89888471e-05
234    -8.15954765e-07
235    1.64513655e-06
236    -2.09221236e-05
237    -6.57443856e-06
238    -2.70510837e-15
239    -1.30618497e-05
240    6.98756462e-05
241    1.71799009e-05
242    1.34254547e-15
243    0.000374140098
244    -0.000381455673
245    5.83231216e-05
246    -7.05855151e-15
247    -0.00191756604
248    0.000452710358
249    0.00218468466
250    -1.22017145e-13
251    0.00228045923
252    0.00051538079
253    0.00102647113
254    -5.17957899e-13
255    -6.15117488e-05
256    2.52544358e-16
257    1.61540469e-06
258    -8.59383358e-16
259    -3.99662886e-05
260    -3.50463427e-05
261    6.92232477e-05
262    -5.14075009e-05
263    2.95594565e-05
264    3.31151235e-16
265    -0.000317019896
266    -0.000537329409
267    0.000297260097
268    -1.36796188e-16
269    3.28922337e-05
270    -1.37055987e-05
271    -0.000122658749
272    -4.33795102e-15
273    0.000364467899
274    0.000105721852
275    -0.000363594483
276    1.34573434e-14
277    -0.00284761984
278    -0.000643462762
279    0.000501744053
280    -5.61919779e-14
281    0.000268840198
282    -6.24397707e-16
283    6.0209777e-05
284    -6.09066411e-16
285    -0.00020578128
286    -1.4632112e-05
287    2.78682658e-05
288    9.58185263e-05
289    0.000363698924
290    -3.36489207e-06
291    2.55340158e-06
292    -7.95720161e-16
293    -4.73289154e-06
294    -0.000132605538
295    2.37400247e-05
296    -0.000338575557
297    -7.99436537e-05
298    1.86949911e-05
299    4.47239477e-16
300    -2.32406184e-06
301    -8.25708228e-06
302    4.94800597e-05
303    -0.000467604194
304    3.18242587e-06
305    7.18896402e-07
306    4.86720511e-16
307    -5.08433326e-06
308    3.40444789e-05
309    3.68504013e-05
310    0.000211017295
311    -4.93195253e-06
312    -2.00971551e-06
313    -5.54788231e-16
314    -6.99147707e-06
315    2.89811274e-05
316    -0.000222096692
317    -8.68110181e-05
318    -3.6528491e-06
319    1.95412665e-06
320    -4.6812899e-16
[5D]