[Molden Format]
[Atoms] (Angs)
  N      1    7      1.94018933      0.52508494      0.00000000
  N      2    7     -0.02213269      1.91541175      0.00000000
  N      3    7     -1.17840874     -1.47034963     -0.00000000
  N      4    7     -2.06912523      0.58482266      0.00000000
  N      5    7      1.87296022     -1.79117643     -0.00000000
  C      6    6      1.29026180      1.69525713      0.00000000
  C      7    6     -0.70757697      0.77138093      0.00000000
  C      8    6     -0.17789318     -0.51725539     -0.00000000
  C      9    6      1.22552274     -0.60755281     -0.00000000
  C     10    6     -2.28299045     -0.77446763     -0.00000000
  H     11    1     -2.76356369      1.31172362      0.00000000
  H     12    1     -3.27766143     -1.18864608     -0.00000000
  H     13    1      1.92065024      2.57638112      0.00000000
  H     14    1      1.35622854     -2.65035184     -0.00000000
  H     15    1      2.87602238     -1.79983315     -0.00000000
[GTO]
1    0
S    1    1.000000
   6.29348000E+03    1.96979000E-03 
S    1    1.000000
   9.49044000E+02    1.49613000E-02 
S    1    1.000000
   2.18776000E+02    7.35006000E-02 
S    1    1.000000
   6.36916000E+01    2.48937000E-01 
S    1    1.000000
   1.88282000E+01    6.02460000E-01 
S    1    1.000000
   2.72023000E+00    2.56202000E-01 
SP   3    1.000000
   3.06331000E+01    1.11906000E-01   3.83119000E-02 
   7.02614000E+00    9.21666000E-01   2.37403000E-01 
   2.11205000E+00   -2.56919000E-03   8.17592000E-01 
SP   1    1.000000
   6.84009000E-01    1.00000000E+00   1.00000000E+00 
SP   1    1.000000
   2.00878000E-01    1.00000000E+00   1.00000000E+00 
SP   1    1.000000
   6.39000000E-02    1.00000000E+00   1.00000000E+00 
SP   1    1.000000
   1.92469880E-02    1.00000000E+00   1.00000000E+00 
D    1    1.000000
   9.13000000E-01    1.00000000E+00 

2    0
S    1    1.000000
   6.29348000E+03    1.96979000E-03 
S    1    1.000000
   9.49044000E+02    1.49613000E-02 
S    1    1.000000
   2.18776000E+02    7.35006000E-02 
S    1    1.000000
   6.36916000E+01    2.48937000E-01 
S    1    1.000000
   1.88282000E+01    6.02460000E-01 
S    1    1.000000
   2.72023000E+00    2.56202000E-01 
SP   3    1.000000
   3.06331000E+01    1.11906000E-01   3.83119000E-02 
   7.02614000E+00    9.21666000E-01   2.37403000E-01 
   2.11205000E+00   -2.56919000E-03   8.17592000E-01 
SP   1    1.000000
   6.84009000E-01    1.00000000E+00   1.00000000E+00 
SP   1    1.000000
   2.00878000E-01    1.00000000E+00   1.00000000E+00 
SP   1    1.000000
   6.39000000E-02    1.00000000E+00   1.00000000E+00 
SP   1    1.000000
   1.92469880E-02    1.00000000E+00   1.00000000E+00 
D    1    1.000000
   9.13000000E-01    1.00000000E+00 

3    0
S    1    1.000000
   6.29348000E+03    1.96979000E-03 
S    1    1.000000
   9.49044000E+02    1.49613000E-02 
S    1    1.000000
   2.18776000E+02    7.35006000E-02 
S    1    1.000000
   6.36916000E+01    2.48937000E-01 
S    1    1.000000
   1.88282000E+01    6.02460000E-01 
S    1    1.000000
   2.72023000E+00    2.56202000E-01 
SP   3    1.000000
   3.06331000E+01    1.11906000E-01   3.83119000E-02 
   7.02614000E+00    9.21666000E-01   2.37403000E-01 
   2.11205000E+00   -2.56919000E-03   8.17592000E-01 
SP   1    1.000000
   6.84009000E-01    1.00000000E+00   1.00000000E+00 
SP   1    1.000000
   2.00878000E-01    1.00000000E+00   1.00000000E+00 
SP   1    1.000000
   6.39000000E-02    1.00000000E+00   1.00000000E+00 
SP   1    1.000000
   1.92469880E-02    1.00000000E+00   1.00000000E+00 
D    1    1.000000
   9.13000000E-01    1.00000000E+00 

4    0
S    1    1.000000
   6.29348000E+03    1.96979000E-03 
S    1    1.000000
   9.49044000E+02    1.49613000E-02 
S    1    1.000000
   2.18776000E+02    7.35006000E-02 
S    1    1.000000
   6.36916000E+01    2.48937000E-01 
S    1    1.000000
   1.88282000E+01    6.02460000E-01 
S    1    1.000000
   2.72023000E+00    2.56202000E-01 
SP   3    1.000000
   3.06331000E+01    1.11906000E-01   3.83119000E-02 
   7.02614000E+00    9.21666000E-01   2.37403000E-01 
   2.11205000E+00   -2.56919000E-03   8.17592000E-01 
SP   1    1.000000
   6.84009000E-01    1.00000000E+00   1.00000000E+00 
SP   1    1.000000
   2.00878000E-01    1.00000000E+00   1.00000000E+00 
SP   1    1.000000
   6.39000000E-02    1.00000000E+00   1.00000000E+00 
SP   1    1.000000
   1.92469880E-02    1.00000000E+00   1.00000000E+00 
D    1    1.000000
   9.13000000E-01    1.00000000E+00 

5    0
S    1    1.000000
   6.29348000E+03    1.96979000E-03 
S    1    1.000000
   9.49044000E+02    1.49613000E-02 
S    1    1.000000
   2.18776000E+02    7.35006000E-02 
S    1    1.000000
   6.36916000E+01    2.48937000E-01 
S    1    1.000000
   1.88282000E+01    6.02460000E-01 
S    1    1.000000
   2.72023000E+00    2.56202000E-01 
SP   3    1.000000
   3.06331000E+01    1.11906000E-01   3.83119000E-02 
   7.02614000E+00    9.21666000E-01   2.37403000E-01 
   2.11205000E+00   -2.56919000E-03   8.17592000E-01 
SP   1    1.000000
   6.84009000E-01    1.00000000E+00   1.00000000E+00 
SP   1    1.000000
   2.00878000E-01    1.00000000E+00   1.00000000E+00 
SP   1    1.000000
   6.39000000E-02    1.00000000E+00   1.00000000E+00 
SP   1    1.000000
   1.92469880E-02    1.00000000E+00   1.00000000E+00 
D    1    1.000000
   9.13000000E-01    1.00000000E+00 

6    0
S    6    1.000000
   4.56324000E+03    1.96665000E-03 
   6.82024000E+02    1.52306000E-02 
   1.54973000E+02    7.61269000E-02 
   4.44553000E+01    2.60801000E-01 
   1.30290000E+01    6.16462000E-01 
   1.82773000E+00    2.21006000E-01 
SP   3    1.000000
   2.09642000E+01    1.14660000E-01   4.02487000E-02 
   4.80331000E+00    9.19999000E-01   2.37594000E-01 
   1.45933000E+00   -3.03068000E-03   8.15854000E-01 
SP   1    1.000000
   4.83456000E-01    1.00000000E+00   1.00000000E+00 
SP   1    1.000000
   1.45585000E-01    1.00000000E+00   1.00000000E+00 
SP   1    1.000000
   4.38000000E-02    1.00000000E+00   1.00000000E+00 
SP   1    1.000000
   1.31927711E-02    1.00000000E+00   1.00000000E+00 
D    1    1.000000
   6.26000000E-01    1.00000000E+00 

7    0
S    6    1.000000
   4.56324000E+03    1.96665000E-03 
   6.82024000E+02    1.52306000E-02 
   1.54973000E+02    7.61269000E-02 
   4.44553000E+01    2.60801000E-01 
   1.30290000E+01    6.16462000E-01 
   1.82773000E+00    2.21006000E-01 
SP   3    1.000000
   2.09642000E+01    1.14660000E-01   4.02487000E-02 
   4.80331000E+00    9.19999000E-01   2.37594000E-01 
   1.45933000E+00   -3.03068000E-03   8.15854000E-01 
SP   1    1.000000
   4.83456000E-01    1.00000000E+00   1.00000000E+00 
SP   1    1.000000
   1.45585000E-01    1.00000000E+00   1.00000000E+00 
SP   1    1.000000
   4.38000000E-02    1.00000000E+00   1.00000000E+00 
SP   1    1.000000
   1.31927711E-02    1.00000000E+00   1.00000000E+00 
D    1    1.000000
   6.26000000E-01    1.00000000E+00 

8    0
S    6    1.000000
   4.56324000E+03    1.96665000E-03 
   6.82024000E+02    1.52306000E-02 
   1.54973000E+02    7.61269000E-02 
   4.44553000E+01    2.60801000E-01 
   1.30290000E+01    6.16462000E-01 
   1.82773000E+00    2.21006000E-01 
SP   3    1.000000
   2.09642000E+01    1.14660000E-01   4.02487000E-02 
   4.80331000E+00    9.19999000E-01   2.37594000E-01 
   1.45933000E+00   -3.03068000E-03   8.15854000E-01 
SP   1    1.000000
   4.83456000E-01    1.00000000E+00   1.00000000E+00 
SP   1    1.000000
   1.45585000E-01    1.00000000E+00   1.00000000E+00 
SP   1    1.000000
   4.38000000E-02    1.00000000E+00   1.00000000E+00 
SP   1    1.000000
   1.31927711E-02    1.00000000E+00   1.00000000E+00 
D    1    1.000000
   6.26000000E-01    1.00000000E+00 

9    0
S    6    1.000000
   4.56324000E+03    1.96665000E-03 
   6.82024000E+02    1.52306000E-02 
   1.54973000E+02    7.61269000E-02 
   4.44553000E+01    2.60801000E-01 
   1.30290000E+01    6.16462000E-01 
   1.82773000E+00    2.21006000E-01 
SP   3    1.000000
   2.09642000E+01    1.14660000E-01   4.02487000E-02 
   4.80331000E+00    9.19999000E-01   2.37594000E-01 
   1.45933000E+00   -3.03068000E-03   8.15854000E-01 
SP   1    1.000000
   4.83456000E-01    1.00000000E+00   1.00000000E+00 
SP   1    1.000000
   1.45585000E-01    1.00000000E+00   1.00000000E+00 
SP   1    1.000000
   4.38000000E-02    1.00000000E+00   1.00000000E+00 
SP   1    1.000000
   1.31927711E-02    1.00000000E+00   1.00000000E+00 
D    1    1.000000
   6.26000000E-01    1.00000000E+00 

10    0
S    6    1.000000
   4.56324000E+03    1.96665000E-03 
   6.82024000E+02    1.52306000E-02 
   1.54973000E+02    7.61269000E-02 
   4.44553000E+01    2.60801000E-01 
   1.30290000E+01    6.16462000E-01 
   1.82773000E+00    2.21006000E-01 
SP   3    1.000000
   2.09642000E+01    1.14660000E-01   4.02487000E-02 
   4.80331000E+00    9.19999000E-01   2.37594000E-01 
   1.45933000E+00   -3.03068000E-03   8.15854000E-01 
SP   1    1.000000
   4.83456000E-01    1.00000000E+00   1.00000000E+00 
SP   1    1.000000
   1.45585000E-01    1.00000000E+00   1.00000000E+00 
SP   1    1.000000
   4.38000000E-02    1.00000000E+00   1.00000000E+00 
SP   1    1.000000
   1.31927711E-02    1.00000000E+00   1.00000000E+00 
D    1    1.000000
   6.26000000E-01    1.00000000E+00 

11    0
S    3    1.000000
   3.38650000E+01    2.54938000E-02 
   5.09479000E+00    1.90373000E-01 
   1.15879000E+00    8.52161000E-01 
S    1    1.000000
   3.25840000E-01    1.00000000E+00 
S    1    1.000000
   1.02741000E-01    1.00000000E+00 
S    1    1.000000
   3.60000000E-02    1.00000000E+00 
P    1    1.000000
   7.50000000E-01    1.00000000E+00 

12    0
S    3    1.000000
   3.38650000E+01    2.54938000E-02 
   5.09479000E+00    1.90373000E-01 
   1.15879000E+00    8.52161000E-01 
S    1    1.000000
   3.25840000E-01    1.00000000E+00 
S    1    1.000000
   1.02741000E-01    1.00000000E+00 
S    1    1.000000
   3.60000000E-02    1.00000000E+00 
P    1    1.000000
   7.50000000E-01    1.00000000E+00 

13    0
S    3    1.000000
   3.38650000E+01    2.54938000E-02 
   5.09479000E+00    1.90373000E-01 
   1.15879000E+00    8.52161000E-01 
S    1    1.000000
   3.25840000E-01    1.00000000E+00 
S    1    1.000000
   1.02741000E-01    1.00000000E+00 
S    1    1.000000
   3.60000000E-02    1.00000000E+00 
P    1    1.000000
   7.50000000E-01    1.00000000E+00 

14    0
S    3    1.000000
   3.38650000E+01    2.54938000E-02 
   5.09479000E+00    1.90373000E-01 
   1.15879000E+00    8.52161000E-01 
S    1    1.000000
   3.25840000E-01    1.00000000E+00 
S    1    1.000000
   1.02741000E-01    1.00000000E+00 
S    1    1.000000
   3.60000000E-02    1.00000000E+00 
P    1    1.000000
   7.50000000E-01    1.00000000E+00 

15    0
S    3    1.000000
   3.38650000E+01    2.54938000E-02 
   5.09479000E+00    1.90373000E-01 
   1.15879000E+00    8.52161000E-01 
S    1    1.000000
   3.25840000E-01    1.00000000E+00 
S    1    1.000000
   1.02741000E-01    1.00000000E+00 
S    1    1.000000
   3.60000000E-02    1.00000000E+00 
P    1    1.000000
   7.50000000E-01    1.00000000E+00 

[MO]
Sym=X
Ene=0.920584
Spin=Alpha
Occup=1
1    -4.3380436e-06
2    -3.29597676e-05
3    -0.000161997306
4    -0.000547896502
5    -0.00134155855
6    -0.000627834698
7    -0.00180987766
8    3.11537654e-05
9    -2.12218383e-05
10    -1.63456557e-15
11    6.88051322e-05
12    -7.78111345e-05
13    8.89034184e-05
14    1.23890722e-15
15    0.000162629101
16    2.67725768e-06
17    2.37101763e-05
18    -1.09341273e-14
19    -0.000475815886
20    -8.91622323e-05
21    -0.000182396133
22    4.9833911e-14
23    -0.00326067309
24    0.00084558101
25    -0.000544355609
26    5.53009529e-14
27    -5.00386776e-05
28    3.6357188e-16
29    -1.71752917e-05
30    3.19083859e-16
31    -9.27175471e-06
32    0.00109734389
33    0.00835481306
34    0.0409391005
35    0.138944997
36    0.33600869
37    0.143965809
38    0.467605195
39    0.000721209573
40    -0.00214377207
41    -9.09464412e-16
42    0.00385511009
43    -0.000321118772
44    0.00114122894
45    2.09123807e-15
46    -0.000327148136
47    0.000130334987
48    -0.000651498438
49    -7.59352409e-15
50    0.00550454297
51    -0.000502901925
52    -0.000265078789
53    4.34651009e-14
54    0.00959708152
55    -0.00129709177
56    -0.00192211859
57    2.6543125e-14
58    -9.41752677e-05
59    -5.06297392e-17
60    -7.34464664e-05
61    -1.85787444e-17
62    -3.59169922e-05
63    -2.9178571e-07
64    -2.18434752e-06
65    -1.09725399e-05
66    -3.61943146e-05
67    -9.63728967e-05
68    -6.88223624e-05
69    -0.000104882779
70    -4.68782744e-06
71    -6.74097683e-06
72    -3.28828175e-16
73    5.40506498e-05
74    2.70101201e-05
75    3.86110478e-05
76    -5.91500938e-16
77    -3.3876882e-05
78    -5.07441374e-05
79    -3.73132823e-05
80    3.84741346e-15
81    0.000490670506
82    -0.00012474244
83    0.000172534861
84    -2.49515659e-14
85    0.00123616652
86    0.000194524423
87    0.000376674706
88    -5.82533013e-14
89    1.54515431e-05
90    3.43207259e-16
91    -6.44629462e-06
92    -4.86942118e-16
93    -3.89433018e-06
94    2.24176192e-07
95    1.7165674e-06
96    8.34350587e-06
97    2.85907437e-05
98    6.67972827e-05
99    2.22877059e-05
100    0.000101848084
101    -1.003182e-05
102    -1.19811577e-05
103    -3.95288683e-17
104    -5.36554973e-06
105    1.76383942e-05
106    2.68458734e-05
107    1.11087157e-15
108    7.58429629e-06
109    -1.05346794e-05
110    0.000126158827
111    3.9930124e-16
112    -0.00228915745
113    -0.00024834561
114    -0.000138183095
115    1.30437581e-14
116    -0.00661097273
117    -0.00126693426
118    -0.00059640213
119    1.84787644e-14
120    3.63140052e-05
121    -2.34089615e-16
122    -8.00968639e-06
123    -3.46013277e-16
124    4.38703196e-06
125    -3.15363176e-08
126    -2.21222069e-07
127    -1.22018687e-06
128    -3.6122671e-06
129    -1.32489515e-05
130    -1.99673729e-05
131    -3.29964997e-06
132    3.19690183e-06
133    -4.13618323e-06
134    -1.78353479e-15
135    3.34754675e-05
136    -1.65288942e-05
137    2.24585385e-05
138    2.10852586e-15
139    -0.000120695867
140    6.600073e-05
141    -4.09541779e-05
142    -9.87487305e-15
143    -6.86908847e-05
144    0.000324072399
145    2.91538761e-05
146    2.93431608e-14
147    -0.000561116092
148    -6.94352407e-05
149    -0.000139655117
150    1.28737585e-16
151    -9.58993881e-06
152    -2.15520716e-16
153    1.19498462e-07
154    -8.8377097e-17
155    -3.18721927e-06
156    2.70197246e-05
157    -5.42758475e-05
158    -4.19580204e-05
159    8.44265014e-06
160    -9.87032473e-16
161    0.000275201493
162    -0.000576757264
163    4.34027724e-05
164    8.32440816e-16
165    -0.000366629493
166    0.000161414762
167    5.73792501e-05
168    -6.8041067e-15
169    0.00164548207
170    -0.000364549756
171    -0.00117111715
172    -4.08251261e-14
173    0.00537952978
174    -0.000949045148
175    7.94892918e-05
176    -1.10761377e-14
177    8.00838619e-06
178    2.61968154e-16
179    -3.13432493e-05
180    -1.19215069e-16
181    0.000317015522
182    2.75679056e-05
183    -7.19433782e-05
184    1.65000694e-05
185    2.82609932e-05
186    -7.52120788e-16
187    0.000314933613
188    0.000312676451
189    0.000627531213
190    1.28362171e-15
191    -0.000432875908
192    -0.000327915
193    -0.00050916363
194    -2.73068086e-15
195    0.00496951415
196    -0.00364131865
197    -0.00548526037
198    -9.26831118e-14
199    -0.00509494323
200    -0.00310676701
201    -0.0015377091
202    -9.65928064e-14
203    0.000353306698
204    -3.54930084e-16
205    -8.30576816e-05
206    2.66114895e-17
207    -5.56488368e-05
208    3.64419772e-06
209    -1.18751459e-05
210    5.00448255e-06
211    -3.40227796e-05
212    -7.72316081e-16
213    7.74034401e-05
214    -4.82390171e-05
215    0.000199451051
216    -4.96994189e-16
217    -0.000180990242
218    -0.000129554416
219    -0.000114108444
220    -6.75577386e-15
221    -0.00567203151
222    0.00353668839
223    -0.00223021921
224    1.44035675e-13
225    -0.0051527957
226    0.00375863544
227    0.00022706724
228    1.97206509e-13
229    -4.84777165e-05
230    -3.24059484e-16
231    -6.0774311e-06
232    -2.95348157e-16
233    -0.000106951648
234    1.28539164e-06
235    -7.25461667e-06
236    9.07843247e-06
237    -5.67004476e-06
238    -2.10281754e-15
239    3.81230961e-05
240    -6.59771413e-05
241    3.25939459e-05
242    -1.26464098e-16
243    0.000219646656
244    -2.97943744e-05
245    -0.000162309757
246    -2.20498537e-15
247    -0.00339433385
248    0.000280427775
249    0.000387347138
250    -1.32812399e-13
251    -0.00110939833
252    -0.000275663411
253    0.000386194345
254    -1.02365418e-13
255    7.38226854e-06
256    3.43622734e-16
257    -6.92487451e-06
258    -5.84768167e-17
259    3.70485597e-05
260    1.796246e-07
261    -2.44471826e-06
262    1.23506295e-06
263    2.18427225e-06
264    4.58132142e-16
265    2.09810706e-05
266    2.14723625e-06
267    6.56352286e-07
268    3.37188857e-16
269    4.87517052e-05
270    -0.000144349748
271    7.68618508e-05
272    -1.7370599e-15
273    -0.0014138418
274    -0.000419715958
275    -0.000583550245
276    2.63011556e-15
277    0.00583697437
278    0.00140827496
279    -0.000130665407
280    -5.47791319e-15
281    2.76889777e-06
282    1.11055103e-16
283    3.27297432e-06
284    -4.29142145e-16
285    -8.21435122e-06
286    1.10848257e-05
287    -7.04616273e-05
288    0.000214653711
289    0.000221568103
290    -1.98211575e-05
291    -7.31546069e-06
292    -3.9021005e-16
293    4.34842557e-06
294    -3.24085766e-05
295    -9.3655296e-05
296    -0.000259755263
297    -2.62063021e-06
298    -3.10408106e-06
299    7.59645567e-16
300    1.4550147e-05
301    0.000108075055
302    -3.78422343e-05
303    0.0012756894
304    -7.98791338e-05
305    -4.13241585e-05
306    -1.27982261e-16
307    2.13812093e-06
308    1.65222573e-05
309    8.52529885e-05
310    -4.49852543e-05
311    7.13016138e-07
312    5.46952726e-06
313    -5.10122429e-16
314    -8.16689607e-08
315    5.89194066e-06
316    -0.000167852933
317    8.54205904e-05
318    -1.30059795e-06
319    2.82512376e-06
320    -4.0317511e-16
[5D]