[Molden Format]
[Atoms] (Angs)
  N      1    7      1.94018933      0.52508494      0.00000000
  N      2    7     -0.02213269      1.91541175      0.00000000
  N      3    7     -1.17840874     -1.47034963     -0.00000000
  N      4    7     -2.06912523      0.58482266      0.00000000
  N      5    7      1.87296022     -1.79117643     -0.00000000
  C      6    6      1.29026180      1.69525713      0.00000000
  C      7    6     -0.70757697      0.77138093      0.00000000
  C      8    6     -0.17789318     -0.51725539     -0.00000000
  C      9    6      1.22552274     -0.60755281     -0.00000000
  C     10    6     -2.28299045     -0.77446763     -0.00000000
  H     11    1     -2.76356369      1.31172362      0.00000000
  H     12    1     -3.27766143     -1.18864608     -0.00000000
  H     13    1      1.92065024      2.57638112      0.00000000
  H     14    1      1.35622854     -2.65035184     -0.00000000
  H     15    1      2.87602238     -1.79983315     -0.00000000
[GTO]
1    0
S    1    1.000000
   6.29348000E+03    1.96979000E-03 
S    1    1.000000
   9.49044000E+02    1.49613000E-02 
S    1    1.000000
   2.18776000E+02    7.35006000E-02 
S    1    1.000000
   6.36916000E+01    2.48937000E-01 
S    1    1.000000
   1.88282000E+01    6.02460000E-01 
S    1    1.000000
   2.72023000E+00    2.56202000E-01 
SP   3    1.000000
   3.06331000E+01    1.11906000E-01   3.83119000E-02 
   7.02614000E+00    9.21666000E-01   2.37403000E-01 
   2.11205000E+00   -2.56919000E-03   8.17592000E-01 
SP   1    1.000000
   6.84009000E-01    1.00000000E+00   1.00000000E+00 
SP   1    1.000000
   2.00878000E-01    1.00000000E+00   1.00000000E+00 
SP   1    1.000000
   6.39000000E-02    1.00000000E+00   1.00000000E+00 
SP   1    1.000000
   1.92469880E-02    1.00000000E+00   1.00000000E+00 
D    1    1.000000
   9.13000000E-01    1.00000000E+00 

2    0
S    1    1.000000
   6.29348000E+03    1.96979000E-03 
S    1    1.000000
   9.49044000E+02    1.49613000E-02 
S    1    1.000000
   2.18776000E+02    7.35006000E-02 
S    1    1.000000
   6.36916000E+01    2.48937000E-01 
S    1    1.000000
   1.88282000E+01    6.02460000E-01 
S    1    1.000000
   2.72023000E+00    2.56202000E-01 
SP   3    1.000000
   3.06331000E+01    1.11906000E-01   3.83119000E-02 
   7.02614000E+00    9.21666000E-01   2.37403000E-01 
   2.11205000E+00   -2.56919000E-03   8.17592000E-01 
SP   1    1.000000
   6.84009000E-01    1.00000000E+00   1.00000000E+00 
SP   1    1.000000
   2.00878000E-01    1.00000000E+00   1.00000000E+00 
SP   1    1.000000
   6.39000000E-02    1.00000000E+00   1.00000000E+00 
SP   1    1.000000
   1.92469880E-02    1.00000000E+00   1.00000000E+00 
D    1    1.000000
   9.13000000E-01    1.00000000E+00 

3    0
S    1    1.000000
   6.29348000E+03    1.96979000E-03 
S    1    1.000000
   9.49044000E+02    1.49613000E-02 
S    1    1.000000
   2.18776000E+02    7.35006000E-02 
S    1    1.000000
   6.36916000E+01    2.48937000E-01 
S    1    1.000000
   1.88282000E+01    6.02460000E-01 
S    1    1.000000
   2.72023000E+00    2.56202000E-01 
SP   3    1.000000
   3.06331000E+01    1.11906000E-01   3.83119000E-02 
   7.02614000E+00    9.21666000E-01   2.37403000E-01 
   2.11205000E+00   -2.56919000E-03   8.17592000E-01 
SP   1    1.000000
   6.84009000E-01    1.00000000E+00   1.00000000E+00 
SP   1    1.000000
   2.00878000E-01    1.00000000E+00   1.00000000E+00 
SP   1    1.000000
   6.39000000E-02    1.00000000E+00   1.00000000E+00 
SP   1    1.000000
   1.92469880E-02    1.00000000E+00   1.00000000E+00 
D    1    1.000000
   9.13000000E-01    1.00000000E+00 

4    0
S    1    1.000000
   6.29348000E+03    1.96979000E-03 
S    1    1.000000
   9.49044000E+02    1.49613000E-02 
S    1    1.000000
   2.18776000E+02    7.35006000E-02 
S    1    1.000000
   6.36916000E+01    2.48937000E-01 
S    1    1.000000
   1.88282000E+01    6.02460000E-01 
S    1    1.000000
   2.72023000E+00    2.56202000E-01 
SP   3    1.000000
   3.06331000E+01    1.11906000E-01   3.83119000E-02 
   7.02614000E+00    9.21666000E-01   2.37403000E-01 
   2.11205000E+00   -2.56919000E-03   8.17592000E-01 
SP   1    1.000000
   6.84009000E-01    1.00000000E+00   1.00000000E+00 
SP   1    1.000000
   2.00878000E-01    1.00000000E+00   1.00000000E+00 
SP   1    1.000000
   6.39000000E-02    1.00000000E+00   1.00000000E+00 
SP   1    1.000000
   1.92469880E-02    1.00000000E+00   1.00000000E+00 
D    1    1.000000
   9.13000000E-01    1.00000000E+00 

5    0
S    1    1.000000
   6.29348000E+03    1.96979000E-03 
S    1    1.000000
   9.49044000E+02    1.49613000E-02 
S    1    1.000000
   2.18776000E+02    7.35006000E-02 
S    1    1.000000
   6.36916000E+01    2.48937000E-01 
S    1    1.000000
   1.88282000E+01    6.02460000E-01 
S    1    1.000000
   2.72023000E+00    2.56202000E-01 
SP   3    1.000000
   3.06331000E+01    1.11906000E-01   3.83119000E-02 
   7.02614000E+00    9.21666000E-01   2.37403000E-01 
   2.11205000E+00   -2.56919000E-03   8.17592000E-01 
SP   1    1.000000
   6.84009000E-01    1.00000000E+00   1.00000000E+00 
SP   1    1.000000
   2.00878000E-01    1.00000000E+00   1.00000000E+00 
SP   1    1.000000
   6.39000000E-02    1.00000000E+00   1.00000000E+00 
SP   1    1.000000
   1.92469880E-02    1.00000000E+00   1.00000000E+00 
D    1    1.000000
   9.13000000E-01    1.00000000E+00 

6    0
S    6    1.000000
   4.56324000E+03    1.96665000E-03 
   6.82024000E+02    1.52306000E-02 
   1.54973000E+02    7.61269000E-02 
   4.44553000E+01    2.60801000E-01 
   1.30290000E+01    6.16462000E-01 
   1.82773000E+00    2.21006000E-01 
SP   3    1.000000
   2.09642000E+01    1.14660000E-01   4.02487000E-02 
   4.80331000E+00    9.19999000E-01   2.37594000E-01 
   1.45933000E+00   -3.03068000E-03   8.15854000E-01 
SP   1    1.000000
   4.83456000E-01    1.00000000E+00   1.00000000E+00 
SP   1    1.000000
   1.45585000E-01    1.00000000E+00   1.00000000E+00 
SP   1    1.000000
   4.38000000E-02    1.00000000E+00   1.00000000E+00 
SP   1    1.000000
   1.31927711E-02    1.00000000E+00   1.00000000E+00 
D    1    1.000000
   6.26000000E-01    1.00000000E+00 

7    0
S    6    1.000000
   4.56324000E+03    1.96665000E-03 
   6.82024000E+02    1.52306000E-02 
   1.54973000E+02    7.61269000E-02 
   4.44553000E+01    2.60801000E-01 
   1.30290000E+01    6.16462000E-01 
   1.82773000E+00    2.21006000E-01 
SP   3    1.000000
   2.09642000E+01    1.14660000E-01   4.02487000E-02 
   4.80331000E+00    9.19999000E-01   2.37594000E-01 
   1.45933000E+00   -3.03068000E-03   8.15854000E-01 
SP   1    1.000000
   4.83456000E-01    1.00000000E+00   1.00000000E+00 
SP   1    1.000000
   1.45585000E-01    1.00000000E+00   1.00000000E+00 
SP   1    1.000000
   4.38000000E-02    1.00000000E+00   1.00000000E+00 
SP   1    1.000000
   1.31927711E-02    1.00000000E+00   1.00000000E+00 
D    1    1.000000
   6.26000000E-01    1.00000000E+00 

8    0
S    6    1.000000
   4.56324000E+03    1.96665000E-03 
   6.82024000E+02    1.52306000E-02 
   1.54973000E+02    7.61269000E-02 
   4.44553000E+01    2.60801000E-01 
   1.30290000E+01    6.16462000E-01 
   1.82773000E+00    2.21006000E-01 
SP   3    1.000000
   2.09642000E+01    1.14660000E-01   4.02487000E-02 
   4.80331000E+00    9.19999000E-01   2.37594000E-01 
   1.45933000E+00   -3.03068000E-03   8.15854000E-01 
SP   1    1.000000
   4.83456000E-01    1.00000000E+00   1.00000000E+00 
SP   1    1.000000
   1.45585000E-01    1.00000000E+00   1.00000000E+00 
SP   1    1.000000
   4.38000000E-02    1.00000000E+00   1.00000000E+00 
SP   1    1.000000
   1.31927711E-02    1.00000000E+00   1.00000000E+00 
D    1    1.000000
   6.26000000E-01    1.00000000E+00 

9    0
S    6    1.000000
   4.56324000E+03    1.96665000E-03 
   6.82024000E+02    1.52306000E-02 
   1.54973000E+02    7.61269000E-02 
   4.44553000E+01    2.60801000E-01 
   1.30290000E+01    6.16462000E-01 
   1.82773000E+00    2.21006000E-01 
SP   3    1.000000
   2.09642000E+01    1.14660000E-01   4.02487000E-02 
   4.80331000E+00    9.19999000E-01   2.37594000E-01 
   1.45933000E+00   -3.03068000E-03   8.15854000E-01 
SP   1    1.000000
   4.83456000E-01    1.00000000E+00   1.00000000E+00 
SP   1    1.000000
   1.45585000E-01    1.00000000E+00   1.00000000E+00 
SP   1    1.000000
   4.38000000E-02    1.00000000E+00   1.00000000E+00 
SP   1    1.000000
   1.31927711E-02    1.00000000E+00   1.00000000E+00 
D    1    1.000000
   6.26000000E-01    1.00000000E+00 

10    0
S    6    1.000000
   4.56324000E+03    1.96665000E-03 
   6.82024000E+02    1.52306000E-02 
   1.54973000E+02    7.61269000E-02 
   4.44553000E+01    2.60801000E-01 
   1.30290000E+01    6.16462000E-01 
   1.82773000E+00    2.21006000E-01 
SP   3    1.000000
   2.09642000E+01    1.14660000E-01   4.02487000E-02 
   4.80331000E+00    9.19999000E-01   2.37594000E-01 
   1.45933000E+00   -3.03068000E-03   8.15854000E-01 
SP   1    1.000000
   4.83456000E-01    1.00000000E+00   1.00000000E+00 
SP   1    1.000000
   1.45585000E-01    1.00000000E+00   1.00000000E+00 
SP   1    1.000000
   4.38000000E-02    1.00000000E+00   1.00000000E+00 
SP   1    1.000000
   1.31927711E-02    1.00000000E+00   1.00000000E+00 
D    1    1.000000
   6.26000000E-01    1.00000000E+00 

11    0
S    3    1.000000
   3.38650000E+01    2.54938000E-02 
   5.09479000E+00    1.90373000E-01 
   1.15879000E+00    8.52161000E-01 
S    1    1.000000
   3.25840000E-01    1.00000000E+00 
S    1    1.000000
   1.02741000E-01    1.00000000E+00 
S    1    1.000000
   3.60000000E-02    1.00000000E+00 
P    1    1.000000
   7.50000000E-01    1.00000000E+00 

12    0
S    3    1.000000
   3.38650000E+01    2.54938000E-02 
   5.09479000E+00    1.90373000E-01 
   1.15879000E+00    8.52161000E-01 
S    1    1.000000
   3.25840000E-01    1.00000000E+00 
S    1    1.000000
   1.02741000E-01    1.00000000E+00 
S    1    1.000000
   3.60000000E-02    1.00000000E+00 
P    1    1.000000
   7.50000000E-01    1.00000000E+00 

13    0
S    3    1.000000
   3.38650000E+01    2.54938000E-02 
   5.09479000E+00    1.90373000E-01 
   1.15879000E+00    8.52161000E-01 
S    1    1.000000
   3.25840000E-01    1.00000000E+00 
S    1    1.000000
   1.02741000E-01    1.00000000E+00 
S    1    1.000000
   3.60000000E-02    1.00000000E+00 
P    1    1.000000
   7.50000000E-01    1.00000000E+00 

14    0
S    3    1.000000
   3.38650000E+01    2.54938000E-02 
   5.09479000E+00    1.90373000E-01 
   1.15879000E+00    8.52161000E-01 
S    1    1.000000
   3.25840000E-01    1.00000000E+00 
S    1    1.000000
   1.02741000E-01    1.00000000E+00 
S    1    1.000000
   3.60000000E-02    1.00000000E+00 
P    1    1.000000
   7.50000000E-01    1.00000000E+00 

15    0
S    3    1.000000
   3.38650000E+01    2.54938000E-02 
   5.09479000E+00    1.90373000E-01 
   1.15879000E+00    8.52161000E-01 
S    1    1.000000
   3.25840000E-01    1.00000000E+00 
S    1    1.000000
   1.02741000E-01    1.00000000E+00 
S    1    1.000000
   3.60000000E-02    1.00000000E+00 
P    1    1.000000
   7.50000000E-01    1.00000000E+00 

[MO]
Sym=X
Ene=0.94633
Spin=Alpha
Occup=1
1    -0.0010973246
2    -0.0083547102
3    -0.0409382769
4    -0.138943999
5    -0.335997234
6    -0.143976928
7    -0.467594054
8    0.00218342558
9    6.75643073e-05
10    -6.19584634e-17
11    -0.00389012928
12    -0.00111449455
13    -6.50091157e-05
14    3.42988018e-15
15    0.000231486727
16    0.000628696519
17    7.38312914e-05
18    -8.2279333e-15
19    -0.0043475655
20    -0.000150546585
21    0.000323581538
22    5.1361763e-14
23    -0.00606633094
24    0.000918978294
25    0.000579086277
26    4.5585296e-14
27    2.68820415e-05
28    1.05589529e-16
29    8.68709441e-05
30    -1.68640603e-16
31    -8.86835088e-05
32    -4.33061939e-06
33    -3.30347035e-05
34    -0.000161422114
35    -0.000549606301
36    -0.0013138712
37    -0.000513922476
38    -0.00188107269
39    2.43641401e-05
40    -4.84947614e-06
41    -6.15981023e-16
42    -8.38099264e-05
43    -0.000106433155
44    3.27666448e-05
45    3.72912279e-15
46    -0.000301988935
47    -1.91788652e-05
48    7.61257973e-05
49    -7.97641848e-15
50    5.4761411e-06
51    0.000188231341
52    0.000222954392
53    4.50559491e-14
54    0.00264353176
55    0.000696274409
56    -0.00031932275
57    3.03580377e-14
58    3.16918934e-05
59    6.2332741e-17
60    2.10662302e-05
61    -2.27245276e-16
62    -3.69855418e-05
63    7.61047312e-08
64    5.58560687e-07
65    2.88840921e-06
66    9.21290088e-06
67    2.71735522e-05
68    2.6240802e-05
69    2.19573307e-05
70    5.52822433e-06
71    1.04122067e-06
72    4.31560235e-17
73    -2.61478923e-05
74    -2.8145431e-05
75    -1.03995606e-05
76    -2.86675885e-15
77    -3.24457932e-06
78    1.33353558e-05
79    6.74065084e-06
80    1.1892031e-14
81    -3.61041183e-05
82    -0.000176140179
83    8.14422669e-05
84    -5.10126422e-14
85    0.0011432543
86    0.000119128841
87    0.000397350591
88    2.24016846e-14
89    -8.67991419e-06
90    3.59023523e-16
91    4.90626086e-06
92    3.83974003e-17
93    -8.71162861e-06
94    1.36922589e-08
95    8.25223859e-08
96    5.61106682e-07
97    1.29603188e-06
98    8.3373001e-06
99    2.01611196e-05
100    -5.83079272e-06
101    5.01620098e-06
102    8.81983165e-07
103    -1.58399874e-16
104    -3.80956132e-05
105    -2.65629548e-05
106    -3.09324764e-06
107    -5.16319392e-16
108    0.000123233173
109    0.000103406612
110    -1.12877091e-05
111    1.42037105e-15
112    0.000584726435
113    0.000110121941
114    -1.72440084e-05
115    1.18926633e-14
116    -5.11459893e-05
117    -5.02309425e-06
118    4.28933543e-05
119    -2.43692607e-14
120    -3.17185311e-06
121    -5.60896223e-16
122    1.91004118e-06
123    9.07496199e-18
124    -8.37293544e-06
125    -4.65914718e-07
126    -3.58223526e-06
127    -1.73044035e-05
128    -5.97090545e-05
129    -0.000136013013
130    -3.29636978e-05
131    -0.000218523137
132    -3.22697065e-07
133    2.36563504e-05
134    -4.45242054e-17
135    -3.15026203e-05
136    1.54663133e-05
137    -8.10918857e-05
138    1.20895436e-15
139    -4.49127666e-06
140    -0.000114505617
141    -2.07343481e-05
142    -4.13665026e-15
143    0.000923507683
144    -0.000562566438
145    -0.000226273388
146    2.67012528e-14
147    0.00172967469
148    7.8913033e-05
149    0.000272431311
150    -1.59519793e-14
151    5.6559223e-06
152    -2.57012144e-16
153    1.42235792e-05
154    -2.70046291e-16
155    4.94470098e-05
156    -2.45835411e-05
157    4.95949173e-05
158    -1.96203733e-05
159    3.40408515e-05
160    -5.15897724e-17
161    -0.000244105733
162    -0.000226141747
163    0.000500983412
164    3.20374423e-15
165    0.000382608675
166    1.00384944e-05
167    -0.000179202714
168    -3.06378131e-15
169    -0.000406552322
170    0.00086202642
171    7.67894011e-06
172    -3.40864118e-14
173    0.000732043862
174    -0.000261811349
175    -0.000109390936
176    -6.77030776e-14
177    0.000177437559
178    -1.89971139e-16
179    3.2817089e-05
180    -2.05125284e-16
181    0.000251993688
182    -1.59608117e-06
183    6.8619955e-06
184    7.94022025e-06
185    -5.78961919e-06
186    8.04278794e-17
187    -4.88992218e-05
188    -4.9147759e-05
189    3.76047334e-05
190    6.19263871e-16
191    0.000133809698
192    0.000324256017
193    0.000129337735
194    1.24453094e-15
195    0.0020539862
196    0.000431071939
197    3.83098441e-05
198    -1.04307156e-13
199    -0.00116638665
200    -0.00164061062
201    -0.000277956803
202    8.45145702e-14
203    2.77925264e-05
204    -9.21858017e-17
205    -5.28239749e-07
206    7.96463455e-16
207    3.01986528e-05
208    -4.05887398e-06
209    9.47369614e-06
210    2.6462976e-05
211    -7.02804018e-06
212    3.58653035e-16
213    -6.72625805e-05
214    -0.000182052408
215    3.36766861e-05
216    -4.56303589e-17
217    0.000209775674
218    0.000259573179
219    -8.20125373e-05
220    -4.66952695e-15
221    0.00505621235
222    0.00216591109
223    -0.00160349568
224    1.60935173e-13
225    -0.000477981766
226    0.00223814379
227    -0.000123390378
228    -1.05193009e-13
229    3.50606559e-06
230    3.05691514e-16
231    2.78813263e-06
232    8.79957567e-16
233    -8.39904091e-05
234    -2.69185251e-05
235    5.884856e-05
236    -2.80786799e-05
237    -2.52944839e-05
238    -1.45419669e-16
239    -0.000281319246
240    -0.000319558115
241    -0.000517811154
242    2.10949772e-15
243    0.000203374165
244    0.000360800381
245    0.000413136229
246    1.35765856e-15
247    -0.00351804628
248    0.00331598247
249    0.00245285549
250    -1.29091027e-13
251    0.000370383265
252    -0.00041062023
253    0.00089693087
254    6.05029495e-14
255    -0.000243499653
256    4.78848741e-16
257    5.80630399e-05
258    3.92366256e-16
259    0.000235214301
260    -3.73082068e-07
261    1.26159743e-06
262    2.0081499e-08
263    5.68208242e-07
264    1.16545392e-16
265    -1.37138742e-05
266    -2.37507134e-06
267    -6.93122079e-06
268    -1.2068564e-15
269    1.74607479e-05
270    8.69105694e-05
271    4.01749416e-05
272    -1.55044483e-15
273    -9.62274655e-05
274    5.32727297e-05
275    0.000135724919
276    8.74751922e-15
277    0.000779930908
278    0.000216117629
279    -0.000419645683
280    -6.76671754e-15
281    9.09419652e-07
282    -2.47060382e-16
283    -4.90800248e-06
284    -8.7209013e-16
285    2.39864924e-06
286    -2.46839008e-06
287    1.76740231e-05
288    -1.59681219e-05
289    -7.55030162e-05
290    -2.05210289e-06
291    -2.81207587e-06
292    -4.29035266e-16
293    -2.95501097e-06
294    1.31533315e-05
295    6.95710822e-05
296    9.77246091e-05
297    1.88970198e-07
298    5.76573478e-07
299    2.63450261e-16
300    -1.1557384e-05
301    -0.000107508893
302    6.09423753e-05
303    -0.000629853882
304    9.31872971e-06
305    8.55333321e-05
306    -1.47899827e-16
307    -3.20864627e-06
308    -2.65478864e-05
309    -0.000281061302
310    0.000142021687
311    3.30682504e-07
312    -1.04769817e-05
313    -2.9982037e-16
314    -5.57609768e-06
315    5.27722597e-05
316    0.000135586486
317    -0.000222450738
318    3.06248947e-06
319    1.22238771e-05
320    1.59918171e-16
Sym=X
Ene=0.945547
Spin=Alpha
Occup=1
1    -4.33606563e-06
2    -3.29447079e-05
3    -0.000161923513
4    -0.00054764605
5    -0.0013409529
6    -0.000627575167
7    -0.00180903481
8    3.11498326e-05
9    -2.1221972e-05
10    -1.63456345e-15
11    6.88121391e-05
12    -7.78091316e-05
13    8.89035788e-05
14    1.23889897e-15
15    0.000162628583
16    2.67606205e-06
17    2.37100593e-05
18    -1.09341009e-14
19    -0.00047580794
20    -8.9161548e-05
21    -0.000182397289
22    4.98336977e-14
23    -0.00326066262
24    0.000845580528
25    -0.000544358323
26    5.53007348e-14
27    -5.00387312e-05
28    3.63570665e-16
29    -1.71754431e-05
30    3.19084306e-16
31    -9.27156009e-06
32    0.0010973439
33    0.00835481313
34    0.0409391008
35    0.138944998
36    0.336008692
37    0.14396581
38    0.467605199
39    0.000721209529
40    -0.00214377206
41    -9.09461795e-16
42    0.00385511034
43    -0.000321118617
44    0.00114122881
45    2.09122359e-15
46    -0.000327147814
47    0.000130335207
48    -0.000651498465
49    -7.59348797e-15
50    0.00550454344
51    -0.000502902139
52    -0.000265079131
53    4.34648785e-14
54    0.00959708078
55    -0.00129709354
56    -0.00192211853
57    2.65430249e-14
58    -9.41753221e-05
59    -5.06300373e-17
60    -7.34465089e-05
61    -1.85790317e-17
62    -3.59169639e-05
63    -2.89564276e-07
64    -2.1674343e-06
65    -1.08896637e-05
66    -3.5913041e-05
67    -9.56926928e-05
68    -6.85311236e-05
69    -0.000103936064
70    -4.68821699e-06
71    -6.73642682e-06
72    -3.28825542e-16
73    5.40583658e-05
74    2.70103578e-05
75    3.86086624e-05
76    -5.91495684e-16
77    -3.3878039e-05
78    -5.07442889e-05
79    -3.7312154e-05
80    3.84739499e-15
81    0.000490679734
82    -0.000124740898
83    0.000172534699
84    -2.49514314e-14
85    0.00123617606
86    0.00019452629
87    0.000376675741
88    -5.82529246e-14
89    1.54514396e-05
90    3.4320696e-16
91    -6.44647247e-06
92    -4.86941687e-16
93    -3.89454667e-06
94    2.23293246e-07
95    1.70984484e-06
96    8.31056555e-06
97    2.8478938e-05
98    6.65269123e-05
99    2.21715954e-05
100    0.000101472004
101    -1.00318578e-05
102    -1.19810758e-05
103    -3.95291787e-17
104    -5.3686989e-06
105    1.76384365e-05
106    2.6845718e-05
107    1.11087753e-15
108    7.58431865e-06
109    -1.05350421e-05
110    0.000126158972
111    3.99288946e-16
112    -0.00228916175
113    -0.000248346514
114    -0.000138182184
115    1.304373e-14
116    -0.00661098052
117    -0.00126693572
118    -0.000596401089
119    1.84785551e-14
120    3.63141088e-05
121    -2.34089002e-16
122    -8.00973303e-06
123    -3.4601323e-16
124    4.38698339e-06
125    -3.18856208e-08
126    -2.23881589e-07
127    -1.23321842e-06
128    -3.6564992e-06
129    -1.33559147e-05
130    -2.00133421e-05
131    -3.44841147e-06
132    3.19693464e-06
133    -4.13627844e-06
134    -1.7835335e-15
135    3.34741888e-05
136    -1.65289331e-05
137    2.24587689e-05
138    2.10852481e-15
139    -0.000120695671
140    6.600095e-05
141    -4.09542749e-05
142    -9.87485979e-15
143    -6.86960017e-05
144    0.000324072984
145    2.91537788e-05
146    2.93430722e-14
147    -0.000561125457
148    -6.94348575e-05
149    -0.000139656639
150    1.28629814e-16
151    -9.58996631e-06
152    -2.15519917e-16
153    1.1943941e-07
154    -8.83767419e-17
155    -3.1873349e-06
156    2.70197693e-05
157    -5.42759372e-05
158    -4.19579825e-05
159    8.44258334e-06
160    -9.8703126e-16
161    0.00027520194
162    -0.000576756874
163    4.34018905e-05
164    8.32427858e-16
165    -0.000366630271
166    0.000161414928
167    5.73795185e-05
168    -6.80408334e-15
169    0.00164548708
170    -0.000364551837
171    -0.00117111864
172    -4.08249593e-14
173    0.00537954429
174    -0.000949046514
175    7.94879745e-05
176    -1.10762371e-14
177    8.00805218e-06
178    2.61968195e-16
179    -3.1343299e-05
180    -1.19213255e-16
181    0.000317015081
182    2.75679036e-05
183    -7.19433882e-05
184    1.65000839e-05
185    2.82610503e-05
186    -7.52120219e-16
187    0.000314933709
188    0.000312676865
189    0.000627530809
190    1.28362136e-15
191    -0.000432875771
192    -0.000327915657
193    -0.000509163341
194    -2.73068278e-15
195    0.00496949986
196    -0.00364132283
197    -0.00548526004
198    -9.26826425e-14
199    -0.00509494826
200    -0.00310676892
201    -0.00153771184
202    -9.65920952e-14
203    0.000353306473
204    -3.54931778e-16
205    -8.30576773e-05
206    2.66072944e-17
207    -5.56491205e-05
208    3.64424109e-06
209    -1.18752832e-05
210    5.0044148e-06
211    -3.40227808e-05
212    -7.72313598e-16
213    7.74040445e-05
214    -4.82395028e-05
215    0.000199450006
216    -4.9699276e-16
217    -0.000180990535
218    -0.000129554024
219    -0.000114107838
220    -6.75575135e-15
221    -0.00567204432
222    0.00353668346
223    -0.0022302063
224    1.4403501e-13
225    -0.00515280584
226    0.00375863646
227    0.000227070803
228    1.97205124e-13
229    -4.84770281e-05
230    -3.24060079e-16
231    -6.07759181e-06
232    -2.95348711e-16
233    -0.000106951316
234    1.28543523e-06
235    -7.25471103e-06
236    9.07851059e-06
237    -5.66996826e-06
238    -2.10281237e-15
239    3.81235287e-05
240    -6.59767322e-05
241    3.25949418e-05
242    -1.26472057e-16
243    0.000219645924
244    -2.97944729e-05
245    -0.000162310624
246    -2.20497464e-15
247    -0.0033943208
248    0.000280420202
249    0.000387337305
250    -1.32811873e-13
251    -0.00110940368
252    -0.000275663786
253    0.00038619029
254    -1.0236461e-13
255    7.38289647e-06
256    3.43620787e-16
257    -6.92497846e-06
258    -5.84764467e-17
259    3.70482374e-05
260    1.79683684e-07
261    -2.44483966e-06
262    1.23515133e-06
263    2.18416766e-06
264    4.58132124e-16
265    2.09815827e-05
266    2.148319e-06
267    6.55495423e-07
268    3.37194347e-16
269    4.87518734e-05
270    -0.000144349962
271    7.68620605e-05
272    -1.73704772e-15
273    -0.00141384189
274    -0.000419716001
275    -0.000583549741
276    2.63007851e-15
277    0.00583697953
278    0.00140827614
279    -0.000130665831
280    -5.47782039e-15
281    2.76833709e-06
282    1.11056827e-16
283    3.27285324e-06
284    -4.29138499e-16
285    -8.21377821e-06
286    1.10846674e-05
287    -7.046179e-05
288    0.000214653388
289    0.00022156721
290    -1.98212158e-05
291    -7.31538725e-06
292    -3.90207545e-16
293    4.34843327e-06
294    -3.24084598e-05
295    -9.36554169e-05
296    -0.000259754561
297    -2.62051452e-06
298    -3.10415481e-06
299    7.5964525e-16
300    1.45501725e-05
301    0.000108075255
302    -3.78424057e-05
303    0.00127569158
304    -7.98791559e-05
305    -4.13243106e-05
306    -1.27983647e-16
307    2.13805629e-06
308    1.65221976e-05
309    8.52534813e-05
310    -4.49860935e-05
311    7.13003722e-07
312    5.46951421e-06
313    -5.1012078e-16
314    -8.172415e-08
315    5.89173818e-06
316    -0.000167852678
317    8.54212017e-05
318    -1.30055538e-06
319    2.82509922e-06
320    -4.03174804e-16
Sym=X
Ene=0.947822
Spin=Alpha
Occup=1
1    -7.511485e-08
2    -5.7862262e-07
3    -2.78640324e-06
4    -9.64968079e-06
5    -2.18157217e-05
6    -5.40460082e-06
7    -3.51300839e-05
8    -1.78643327e-06
9    1.73271675e-06
10    -1.28807875e-15
11    -6.97712014e-06
12    9.23782639e-06
13    -4.33773131e-06
14    -2.46403895e-16
15    1.61620718e-05
16    4.59699347e-05
17    -4.54599318e-05
18    -4.6023158e-15
19    5.18815005e-06
20    -0.000177557323
21    0.000176201909
22    4.8068486e-14
23    0.000395247269
24    -0.000518557447
25    0.000778822381
26    6.30819776e-14
27    -9.3080179e-07
28    5.10868953e-16
29    6.29235111e-07
30    -6.39635477e-17
31    -1.21821502e-05
32    -2.8679593e-07
33    -2.21865517e-06
34    -1.06179364e-05
35    -3.70208803e-05
36    -8.11575064e-05
37    -8.31993556e-06
38    -0.000140722281
39    -5.56022995e-06
40    -7.12418544e-06
41    -9.46454757e-16
42    -5.2998057e-05
43    3.24169465e-05
44    5.07008419e-05
45    3.15298359e-15
46    3.19706378e-06
47    -6.58533513e-05
48    -1.7329896e-05
49    -9.43480853e-15
50    -0.000253248629
51    -0.000103190928
52    4.14925e-07
53    5.91135817e-14
54    -0.00151962191
55    0.000102111722
56    0.000214995117
57    2.4458377e-15
58    -1.39347055e-05
59    5.60332064e-17
60    7.66125832e-06
61    1.76201306e-16
62    1.8212903e-05
63    -0.0010974094
64    -0.00835528999
65    -0.0409416308
66    -0.138951857
67    -0.336026301
68    -0.143870393
69    -0.467689481
70    0.000184511097
71    -0.00223970777
72    -1.03236092e-15
73    -0.00381175682
74    -7.76269577e-05
75    0.00115799813
76    1.37292802e-15
77    0.000466758656
78    3.99482612e-05
79    -0.000584871856
80    -3.02304689e-15
81    -0.00441584588
82    -0.000498719867
83    6.10133607e-06
84    -6.16054563e-15
85    -0.00537696139
86    -0.0009027743
87    -0.000871753261
88    -2.25949663e-13
89    6.67508201e-05
90    8.34072612e-17
91    9.20641553e-05
92    -4.22407928e-16
93    0.000116457032
94    -5.20205743e-07
95    -4.03782473e-06
96    -1.9234825e-05
97    -6.74199261e-05
98    -0.000144082709
99    1.41435367e-06
100    -0.00026715457
101    1.03844017e-06
102    -2.29160193e-05
103    1.03789039e-15
104    -0.000119703256
105    -1.37601629e-05
106    9.19708497e-05
107    -2.92103924e-15
108    7.2546866e-05
109    0.000107289055
110    -6.80643021e-05
111    9.13673151e-15
112    0.000641696589
113    7.61065477e-05
114    -0.000226472181
115    -5.68691785e-15
116    0.00294990948
117    0.000432007834
118    -0.000505721647
119    1.42895822e-13
120    -2.57463127e-05
121    1.94800769e-16
122    1.40397601e-05
123    -1.06328991e-16
124    3.06996025e-05
125    -8.35118976e-08
126    -6.47336118e-07
127    -3.08952826e-06
128    -1.08012134e-05
129    -2.32189907e-05
130    6.72159232e-07
131    -4.24922535e-05
132    6.41705533e-07
133    7.44288903e-06
134    -7.02036772e-16
135    -2.0694833e-05
136    1.03164382e-06
137    -3.89479749e-05
138    -8.91650365e-16
139    -9.38312869e-06
140    6.52518677e-06
141    7.02422056e-05
142    -3.04322655e-15
143    0.00118342306
144    0.000253124492
145    0.000187822559
146    1.62351225e-14
147    0.00273369764
148    -0.000244969633
149    0.000435946043
150    7.56771687e-14
151    8.65301731e-06
152    -1.62114052e-16
153    3.92643748e-06
154    1.00737239e-16
155    1.21341394e-05
156    -1.45968439e-07
157    1.10090066e-06
158    -1.3756951e-06
159    2.76682224e-06
160    -6.75144538e-16
161    -8.96674925e-06
162    1.40494066e-05
163    -9.35010354e-06
164    2.17548012e-15
165    0.000115182834
166    -7.71037237e-05
167    -8.65494669e-06
168    -9.75531141e-15
169    -0.00147855044
170    0.000169405969
171    0.000572944371
172    -4.44407479e-14
173    -0.00763744749
174    0.000880679129
175    0.00078562852
176    1.34302219e-13
177    6.94939753e-06
178    4.08210091e-16
179    -6.17131277e-06
180    -5.97608967e-16
181    -7.66848288e-06
182    -3.74398848e-06
183    1.05918449e-05
184    9.16571556e-06
185    -2.00905574e-05
186    -1.79265719e-16
187    -9.04415071e-05
188    -3.58948571e-05
189    0.000157844276
190    -3.0847872e-16
191    -9.08028862e-05
192    8.27121874e-05
193    -0.000120641016
194    -4.98463978e-16
195    0.00604575574
196    0.00132880608
197    -0.000630479478
198    -1.07377828e-13
199    0.00336464498
200    0.00227904653
201    0.00135222542
202    -4.70178756e-13
203    8.80283522e-05
204    5.50897276e-16
205    -2.78310567e-06
206    1.07651555e-15
207    3.76059872e-05
208    -1.88604213e-05
209    6.31314367e-05
210    8.28289853e-06
211    1.04066041e-05
212    -1.0646645e-15
213    -0.000265924777
214    0.000416552591
215    0.000456918144
216    -8.11567177e-16
217    2.20291757e-05
218    -0.000671331239
219    -0.000223839431