[Molden Format]
[Atoms] (Angs)
  C      1    6     -0.00754183     -1.75895763      0.00000000
  H      2    1     -2.09769850     -1.41880678     -0.00000000
  H      3    1     -0.13527422     -2.83956838     -0.00000000
  H      4    1      0.04053511      2.02026369      0.00000000
  C      5    6     -1.22066484      0.39918184     -0.00000000
  O      6    8     -2.25210141      1.05663720     -0.00000000
  C      7    6      1.24009552      0.27789184      0.00000000
  O      8    8      2.33767996      1.06122493      0.00000000
  N      9    7      0.03634586      1.00852936      0.00000000
  N     10    7     -1.18738304     -0.97903470     -0.00000000
  C     11    6      1.22288875     -1.12258096      0.00000000
  H     12    1      2.15640383     -1.68445878      0.00000000
[GTO]
1    0
S    1    1.000000
   4.56324000E+03    1.96665000E-03 
S    1    1.000000
   6.82024000E+02    1.52306000E-02 
S    1    1.000000
   1.54973000E+02    7.61269000E-02 
S    1    1.000000
   4.44553000E+01    2.60801000E-01 
S    1    1.000000
   1.30290000E+01    6.16462000E-01 
S    1    1.000000
   1.82773000E+00    2.21006000E-01 
SP   3    1.000000
   2.09642000E+01    1.14660000E-01   4.02487000E-02 
   4.80331000E+00    9.19999000E-01   2.37594000E-01 
   1.45933000E+00   -3.03068000E-03   8.15854000E-01 
SP   1    1.000000
   4.83456000E-01    1.00000000E+00   1.00000000E+00 
SP   1    1.000000
   1.45585000E-01    1.00000000E+00   1.00000000E+00 
SP   1    1.000000
   4.38000000E-02    1.00000000E+00   1.00000000E+00 
SP   1    1.000000
   1.31927711E-02    1.00000000E+00   1.00000000E+00 
D    1    1.000000
   6.26000000E-01    1.00000000E+00 

2    0
S    3    1.000000
   3.38650000E+01    2.54938000E-02 
   5.09479000E+00    1.90373000E-01 
   1.15879000E+00    8.52161000E-01 
S    1    1.000000
   3.25840000E-01    1.00000000E+00 
S    1    1.000000
   1.02741000E-01    1.00000000E+00 
S    1    1.000000
   3.60000000E-02    1.00000000E+00 
P    1    1.000000
   7.50000000E-01    1.00000000E+00 

3    0
S    3    1.000000
   3.38650000E+01    2.54938000E-02 
   5.09479000E+00    1.90373000E-01 
   1.15879000E+00    8.52161000E-01 
S    1    1.000000
   3.25840000E-01    1.00000000E+00 
S    1    1.000000
   1.02741000E-01    1.00000000E+00 
S    1    1.000000
   3.60000000E-02    1.00000000E+00 
P    1    1.000000
   7.50000000E-01    1.00000000E+00 

4    0
S    3    1.000000
   3.38650000E+01    2.54938000E-02 
   5.09479000E+00    1.90373000E-01 
   1.15879000E+00    8.52161000E-01 
S    1    1.000000
   3.25840000E-01    1.00000000E+00 
S    1    1.000000
   1.02741000E-01    1.00000000E+00 
S    1    1.000000
   3.60000000E-02    1.00000000E+00 
P    1    1.000000
   7.50000000E-01    1.00000000E+00 

5    0
S    1    1.000000
   4.56324000E+03    1.96665000E-03 
S    1    1.000000
   6.82024000E+02    1.52306000E-02 
S    1    1.000000
   1.54973000E+02    7.61269000E-02 
S    1    1.000000
   4.44553000E+01    2.60801000E-01 
S    1    1.000000
   1.30290000E+01    6.16462000E-01 
S    1    1.000000
   1.82773000E+00    2.21006000E-01 
SP   3    1.000000
   2.09642000E+01    1.14660000E-01   4.02487000E-02 
   4.80331000E+00    9.19999000E-01   2.37594000E-01 
   1.45933000E+00   -3.03068000E-03   8.15854000E-01 
SP   1    1.000000
   4.83456000E-01    1.00000000E+00   1.00000000E+00 
SP   1    1.000000
   1.45585000E-01    1.00000000E+00   1.00000000E+00 
SP   1    1.000000
   4.38000000E-02    1.00000000E+00   1.00000000E+00 
SP   1    1.000000
   1.31927711E-02    1.00000000E+00   1.00000000E+00 
D    1    1.000000
   6.26000000E-01    1.00000000E+00 

6    0
S    1    1.000000
   8.58850000E+03    1.89515000E-03 
S    1    1.000000
   1.29723000E+03    1.43859000E-02 
S    1    1.000000
   2.99296000E+02    7.07320000E-02 
S    1    1.000000
   8.73771000E+01    2.40001000E-01 
S    1    1.000000
   2.56789000E+01    5.94797000E-01 
S    1    1.000000
   3.74004000E+00    2.80802000E-01 
SP   3    1.000000
   4.21175000E+01    1.13889000E-01   3.65114000E-02 
   9.62837000E+00    9.20811000E-01   2.37153000E-01 
   2.85332000E+00   -3.27447000E-03   8.19702000E-01 
SP   1    1.000000
   9.05661000E-01    1.00000000E+00   1.00000000E+00 
SP   1    1.000000
   2.55611000E-01    1.00000000E+00   1.00000000E+00 
SP   1    1.000000
   8.45000000E-02    1.00000000E+00   1.00000000E+00 
SP   1    1.000000
   2.54518072E-02    1.00000000E+00   1.00000000E+00 
D    1    1.000000
   1.29200000E+00    1.00000000E+00 

7    0
S    1    1.000000
   4.56324000E+03    1.96665000E-03 
S    1    1.000000
   6.82024000E+02    1.52306000E-02 
S    1    1.000000
   1.54973000E+02    7.61269000E-02 
S    1    1.000000
   4.44553000E+01    2.60801000E-01 
S    1    1.000000
   1.30290000E+01    6.16462000E-01 
S    1    1.000000
   1.82773000E+00    2.21006000E-01 
SP   3    1.000000
   2.09642000E+01    1.14660000E-01   4.02487000E-02 
   4.80331000E+00    9.19999000E-01   2.37594000E-01 
   1.45933000E+00   -3.03068000E-03   8.15854000E-01 
SP   1    1.000000
   4.83456000E-01    1.00000000E+00   1.00000000E+00 
SP   1    1.000000
   1.45585000E-01    1.00000000E+00   1.00000000E+00 
SP   1    1.000000
   4.38000000E-02    1.00000000E+00   1.00000000E+00 
SP   1    1.000000
   1.31927711E-02    1.00000000E+00   1.00000000E+00 
D    1    1.000000
   6.26000000E-01    1.00000000E+00 

8    0
S    1    1.000000
   8.58850000E+03    1.89515000E-03 
S    1    1.000000
   1.29723000E+03    1.43859000E-02 
S    1    1.000000
   2.99296000E+02    7.07320000E-02 
S    1    1.000000
   8.73771000E+01    2.40001000E-01 
S    1    1.000000
   2.56789000E+01    5.94797000E-01 
S    1    1.000000
   3.74004000E+00    2.80802000E-01 
SP   3    1.000000
   4.21175000E+01    1.13889000E-01   3.65114000E-02 
   9.62837000E+00    9.20811000E-01   2.37153000E-01 
   2.85332000E+00   -3.27447000E-03   8.19702000E-01 
SP   1    1.000000
   9.05661000E-01    1.00000000E+00   1.00000000E+00 
SP   1    1.000000
   2.55611000E-01    1.00000000E+00   1.00000000E+00 
SP   1    1.000000
   8.45000000E-02    1.00000000E+00   1.00000000E+00 
SP   1    1.000000
   2.54518072E-02    1.00000000E+00   1.00000000E+00 
D    1    1.000000
   1.29200000E+00    1.00000000E+00 

9    0
S    1    1.000000
   6.29348000E+03    1.96979000E-03 
S    1    1.000000
   9.49044000E+02    1.49613000E-02 
S    1    1.000000
   2.18776000E+02    7.35006000E-02 
S    1    1.000000
   6.36916000E+01    2.48937000E-01 
S    1    1.000000
   1.88282000E+01    6.02460000E-01 
S    1    1.000000
   2.72023000E+00    2.56202000E-01 
SP   3    1.000000
   3.06331000E+01    1.11906000E-01   3.83119000E-02 
   7.02614000E+00    9.21666000E-01   2.37403000E-01 
   2.11205000E+00   -2.56919000E-03   8.17592000E-01 
SP   1    1.000000
   6.84009000E-01    1.00000000E+00   1.00000000E+00 
SP   1    1.000000
   2.00878000E-01    1.00000000E+00   1.00000000E+00 
SP   1    1.000000
   6.39000000E-02    1.00000000E+00   1.00000000E+00 
SP   1    1.000000
   1.92469880E-02    1.00000000E+00   1.00000000E+00 
D    1    1.000000
   9.13000000E-01    1.00000000E+00 

10    0
S    1    1.000000
   6.29348000E+03    1.96979000E-03 
S    1    1.000000
   9.49044000E+02    1.49613000E-02 
S    1    1.000000
   2.18776000E+02    7.35006000E-02 
S    1    1.000000
   6.36916000E+01    2.48937000E-01 
S    1    1.000000
   1.88282000E+01    6.02460000E-01 
S    1    1.000000
   2.72023000E+00    2.56202000E-01 
SP   3    1.000000
   3.06331000E+01    1.11906000E-01   3.83119000E-02 
   7.02614000E+00    9.21666000E-01   2.37403000E-01 
   2.11205000E+00   -2.56919000E-03   8.17592000E-01 
SP   1    1.000000
   6.84009000E-01    1.00000000E+00   1.00000000E+00 
SP   1    1.000000
   2.00878000E-01    1.00000000E+00   1.00000000E+00 
SP   1    1.000000
   6.39000000E-02    1.00000000E+00   1.00000000E+00 
SP   1    1.000000
   1.92469880E-02    1.00000000E+00   1.00000000E+00 
D    1    1.000000
   9.13000000E-01    1.00000000E+00 

11    0
S    1    1.000000
   4.56324000E+03    1.96665000E-03 
S    1    1.000000
   6.82024000E+02    1.52306000E-02 
S    1    1.000000
   1.54973000E+02    7.61269000E-02 
S    1    1.000000
   4.44553000E+01    2.60801000E-01 
S    1    1.000000
   1.30290000E+01    6.16462000E-01 
S    1    1.000000
   1.82773000E+00    2.21006000E-01 
SP   3    1.000000
   2.09642000E+01    1.14660000E-01   4.02487000E-02 
   4.80331000E+00    9.19999000E-01   2.37594000E-01 
   1.45933000E+00   -3.03068000E-03   8.15854000E-01 
SP   1    1.000000
   4.83456000E-01    1.00000000E+00   1.00000000E+00 
SP   1    1.000000
   1.45585000E-01    1.00000000E+00   1.00000000E+00 
SP   1    1.000000
   4.38000000E-02    1.00000000E+00   1.00000000E+00 
SP   1    1.000000
   1.31927711E-02    1.00000000E+00   1.00000000E+00 
D    1    1.000000
   6.26000000E-01    1.00000000E+00 

12    0
S    3    1.000000
   3.38650000E+01    2.54938000E-02 
   5.09479000E+00    1.90373000E-01 
   1.15879000E+00    8.52161000E-01 
S    1    1.000000
   3.25840000E-01    1.00000000E+00 
S    1    1.000000
   1.02741000E-01    1.00000000E+00 
S    1    1.000000
   3.60000000E-02    1.00000000E+00 
P    1    1.000000
   7.50000000E-01    1.00000000E+00 

[MO]
Sym=X
Ene=0.923374
Spin=Alpha
Occup=1
1    2.21824751e-08
2    2.18163326e-07
3    6.94814639e-07
4    3.66408546e-06
5    -4.20295516e-06
6    -6.03436049e-05
7    1.71359753e-05
8    -2.80035301e-05
9    2.10080324e-05
10    7.46155694e-16
11    0.000233535595
12    -0.000318413785
13    0.000200684178
14    6.71473808e-16
15    -0.000416049087
16    0.000133543688
17    -0.000130456732
18    1.59231055e-15
19    -0.00204542957
20    -0.000170958669
21    -0.00120941591
22    1.06076894e-14
23    0.000134915411
24    0.000130122586
25    -0.000322926288
26    4.67545232e-14
27    -0.000202761538
28    1.59867704e-16
29    -4.32225678e-06
30    7.60109563e-16
31    5.93401761e-05
32    0.000217178442
33    4.70350055e-05
34    0.000431163354
35    0.000252938148
36    5.93885757e-05
37    2.69896805e-05
38    -8.91103152e-16
39    9.73766039e-06
40    0.000112125595
41    -0.000192141867
42    -0.000816253212
43    -1.79695257e-05
44    5.86655448e-05
45    2.1680373e-16
46    4.45653703e-06
47    1.30632676e-05
48    -0.000196626261
49    -0.000269640165
50    6.34898432e-08
51    -2.4633786e-06
52    -1.62597909e-17
53    2.12110779e-08
54    1.76792473e-07
55    7.26400308e-07
56    2.71921143e-06
57    -1.73410413e-07
58    -5.63426721e-05
59    1.89291505e-06
60    1.77606761e-06
61    -5.41169949e-05
62    -1.71676797e-15
63    0.000296298487
64    1.38401952e-05
65    -0.000324468517
66    -4.2653445e-15
67    -0.000332697183
68    -7.68205077e-05
69    0.000160149996
70    -5.40609719e-15
71    -0.000842510404
72    -0.000479325595
73    0.000334488006
74    1.92314277e-14
75    -0.00115662373
76    -0.000348779433
77    -7.27865679e-05
78    -1.12462228e-14
79    -4.04316502e-05
80    -2.94926005e-16
81    -1.75854229e-05
82    1.4654192e-15
83    -0.000190994373
84    7.12633469e-09
85    7.11225691e-08
86    2.29563389e-07
87    1.23850855e-06
88    -1.26043133e-06
89    -1.34970165e-05
90    1.42427408e-05
91    -3.41943526e-06
92    1.59840092e-05
93    -8.49420838e-16
94    1.96703978e-05
95    2.03395569e-05
96    -2.63560433e-05
97    -5.54761185e-15
98    2.32929511e-05
99    -1.06922775e-05
100    -3.39791072e-06
101    1.62494651e-16
102    -0.000192140586
103    -9.43053822e-06
104    2.74705026e-06
105    -1.36144438e-14
106    -0.000807393401
107    -8.48808213e-05
108    4.01519453e-05
109    1.0251603e-14
110    -1.69539582e-05
111    2.35138541e-16
112    -4.64998429e-06
113    -3.74424581e-16
114    -1.48753217e-05
115    -1.40166803e-09
116    1.22953777e-08
117    -1.05640969e-07
118    2.94767839e-07
119    -5.00847485e-06
120    -2.27886301e-05
121    1.2855201e-05
122    5.80466885e-06
123    6.46249463e-06
124    1.79546675e-15
125    4.21687399e-05
126    -2.15062834e-05
127    -3.72091396e-05
128    5.72410643e-15
129    5.37518438e-05
130    0.000148554148
131    0.000153775427
132    3.99925693e-15
133    0.000884243321
134    -0.000369534166
135    -7.05507064e-05
136    1.36782406e-14
137    2.99365005e-05
138    -0.000458287345
139    0.000181460063
140    5.6653322e-14
141    -1.17443392e-06
142    -6.00829162e-16
143    -6.50661129e-06
144    8.84230157e-16
145    -7.03870045e-06
146    -5.16666432e-10
147    3.31685861e-09
148    -3.59200465e-08
149    7.57027255e-08
150    -1.64202058e-06
151    -6.44859731e-06
152    3.93381035e-06
153    1.35528496e-06
154    1.10348136e-06
155    1.93171311e-15
156    1.44799693e-05
157    -6.42518806e-06
158    -5.5835656e-06
159    2.55168748e-15
160    -6.21465017e-05
161    3.27863676e-05
162    2.28093219e-05
163    4.90563863e-15
164    -0.000250156942
165    9.75260547e-05
166    3.96008941e-05
167    5.30330646e-15
168    8.43556203e-05
169    3.19804907e-05
170    4.61749176e-05
171    4.06101577e-15
172    8.51629227e-07
173    -4.02900234e-16
174    3.69267202e-07
175    -3.06262682e-16
176    -1.06101077e-07
177    6.13787338e-07
178    4.708828e-06
179    2.28205138e-05
180    7.8448171e-05
181    0.000181095822
182    5.09287086e-05
183    0.000282575181
184    1.55719114e-05
185    1.24830952e-05
186    1.26210107e-16
187    3.57010169e-05
188    -4.84616828e-05
189    -3.37138613e-05
190    -7.50533346e-16
191    7.24313424e-05
192    -9.53988055e-06
193    4.1232733e-08
194    2.63458673e-15
195    -0.000196286942
196    4.36221737e-05
197    0.000388445653
198    -5.38150586e-15
199    -0.000281079468
200    -0.000344466678
201    0.000185347917
202    -2.44132326e-14
203    2.33985949e-05
204    -5.30749919e-16
205    -6.45992684e-06
206    8.09738582e-16
207    9.82613764e-06
208    0.00109725358
209    0.0083544831
210    0.0409350955
211    0.138948609
212    0.335955164
213    0.14400273
214    0.467519715
215    0.000376634747
216    0.000187362308
217    -6.43306845e-16
218    0.00423512086
219    -0.000270634829
220    -7.5250563e-05
221    -1.53142829e-15
222    -0.000257417586
223    0.000202755834
224    5.27068981e-05
225    3.80289513e-16
226    0.00236787991
227    0.000952491484
228    0.000487873534
229    -1.0160939e-14
230    0.00171838643
231    0.000354065598
232    0.000230896197
233    -1.6681749e-14
234    6.63973879e-05
235    -1.28507745e-16
236    1.80787358e-05
237    1.33326485e-16
238    2.63551053e-05
239    -1.55767459e-09
240    3.31160618e-08
241    -1.59786982e-07
242    7.2774255e-07
243    -9.54641465e-06
244    -4.62228325e-05
245    2.64413032e-05
246    1.88624787e-05
247    6.02259786e-06
248    1.89152939e-15
249    9.63749402e-05
250    -0.000111942738
251    -4.4577672e-05
252    4.78409684e-15
253    3.17630229e-05
254    3.48721169e-05
255    3.33041331e-05
256    3.61306984e-15
257    0.00134308957
258    -0.000212248705
259    0.000157295639
260    1.81899901e-15
261    0.000551019123
262    0.000327477528
263    0.000532366296
264    -6.13883412e-14
265    2.92140095e-05
266    5.95469072e-16
267    -7.26192217e-06
268    -4.10948557e-17
269    4.91161064e-05
270    4.43114431e-06
271    1.65238494e-05
272    -3.46107111e-05
273    4.59105853e-05
274    -1.12974237e-05
275    -2.18398926e-06
276    1.52491191e-15
Sym=X
Ene=0.92538
Spin=Alpha
Occup=1
1    -1.29659485e-09
2    1.02727034e-08
3    -9.52459048e-08
4    2.48485178e-07
5    -4.44513071e-06
6    -2.05041716e-05
7    1.13565001e-05
8    -2.43282359e-06
9    -5.64318837e-06
10    -1.40610062e-15
11    3.87972332e-05
12    2.50318891e-05
13    2.87797141e-05
14    5.15416995e-16
15    1.17529176e-05
16    -5.27389722e-05
17    -6.46931623e-06
18    -4.80237708e-15
19    0.000626516036
20    -0.000119632465
21    0.000716586507
22    2.91206399e-15
23    -3.84884153e-05
24    -0.000414959638
25    0.000267882601
26    -6.32673803e-16
27    6.538199e-06
28    -7.33327931e-16
29    -6.00738168e-06
30    1.29282796e-15
31    1.01361474e-05
32    4.26592356e-06
33    -1.60789665e-05
34    -0.000165613845
35    -0.000325217384
36    -1.24538573e-06
37    -1.22980913e-06
38    -1.94264448e-15
39    4.25114805e-06
40    -2.61378141e-06
41    3.77581072e-05
42    0.000653241929
43    1.83804964e-06
44    3.43389805e-06
45    -4.01074537e-16
46    0.000230343235
47    0.000107321414
48    0.000326301151
49    0.000317166703
50    6.09729009e-06
51    -0.000103627785
52    -4.29801973e-16
53    1.88108288e-08
54    1.61203194e-07
55    6.31442469e-07
56    2.55755381e-06
57    4.95789797e-07
58    -3.67613111e-05
59    -1.95923307e-06
60    5.1443163e-05
61    2.64509703e-05
62    -3.99439439e-15
63    0.000256556438
64    0.000237752019
65    0.000105503184
66    -5.61209237e-15
67    -0.000313261034
68    -9.18080913e-05
69    2.21415543e-05
70    -1.06801045e-14
71    -0.00127130027
72    -0.00043610804
73    0.000147757204
74    1.71549909e-14
75    -0.000752662135
76    -4.2488648e-06
77    0.000431810606
78    1.42692342e-14
79    0.000104001089
80    3.27275532e-17
81    -2.05025342e-06
82    1.14749003e-15
83    0.000114524771
84    7.36935771e-09
85    7.07701395e-08
86    2.43724551e-07
87    1.22671655e-06
88    -7.30774044e-07
89    -1.14513734e-05
90    1.309269e-05
91    -1.54278362e-05
92    -3.44250232e-06
93    -2.51086654e-15
94    1.41765739e-05
95    2.86708429e-05
96    -8.77806943e-06
97    -3.08671437e-15
98    3.96685453e-05
99    4.43064926e-07
100    -3.11703389e-06
101    -6.60389136e-15
102    -0.000134595418
103    -1.46682592e-05
104    1.4043816e-05
105    -1.02442923e-14
106    -0.000100739898
107    7.61689822e-05
108    5.09988392e-05
109    -1.43458005e-14
110    -9.28016763e-07
111    4.99781938e-16
112    -5.67219305e-06
113    -7.19365684e-16
114    1.81047097e-05
115    2.07235225e-08
116    2.07654022e-07
117    6.3308511e-07
118    3.4399364e-06
119    -5.71548433e-06
120    -7.426604e-05
121    1.82735603e-05
122    -3.10512634e-05
123    1.91180693e-05
124    1.31822805e-15
125    0.000289923758
126    -0.000297910873
127    0.000234556267
128    2.53652521e-15
129    -0.000307668991
130    0.000278936407
131    -0.000122511613
132    1.82352272e-15
133    -0.00203157452
134    0.00102371088
135    0.000634082521
136    -1.47603784e-15
137    7.05132386e-05
138    0.000401868712
139    -0.000114837923
140    4.79916183e-15
141    -0.000178652199
142    8.93954329e-17
143    -1.70445203e-05
144    1.4318023e-15
145    0.000119367145
146    6.32784254e-09
147    7.40863078e-08
148    1.79123123e-07
149    1.31445814e-06
150    -3.33991247e-06
151    -2.10695784e-05
152    1.90761716e-05
153    1.86886822e-05
154    2.74026982e-06
155    1.48304336e-15
156    2.60233555e-05
157    -3.80675402e-05
158    -2.4935924e-05
159    2.40733306e-15
160    1.54528213e-05
161    3.51813112e-05
162    2.65915795e-05
163    4.87415271e-15
164    -0.000312105827
165    -2.11353645e-05
166    3.27186282e-05
167    5.1846963e-15
168    -0.00134774016
169    0.000203716396
170    6.84601907e-05
171    4.36891458e-15
172    1.18455008e-05
173    -2.90575485e-16
174    -5.3353386e-06
175    -4.06938888e-16
176    1.12721284e-05
177    0.00109722093
178    0.00835426406
179    0.0409338052
180    0.138946002
181    0.335945476
182    0.144051991
183    0.467474709
184    0.000280460471
185    -0.000283175462
186    -6.57846383e-16
187    0.00428337966
188    -0.000193013911
189    0.000147146323
190    -1.56890533e-15
191    -0.000268818508
192    0.0001542483
193    -0.000176755364
194    -2.42871561e-15
195    0.00243423799
196    -0.000137355406
197    -0.000980217702
198    -7.7219214e-15
199    0.00200186482
200    0.000561030972
201    -0.000508213329
202    -1.34015209e-14
203    3.70883835e-05
204    1.54475403e-16
205    4.52843176e-05
206    1.47864489e-15
207    -1.89961453e-05
208    -6.46530129e-07
209    -4.88879587e-06
210    -2.41948029e-05
211    -8.1181966e-05
212    -0.00020446062
213    -0.000113022621
214    -0.000255540344
215    -5.80622678e-06
216    -1.75826596e-05
217    -2.0112092e-15
218    3.13596956e-05
219    1.16148948e-05
220    5.05960844e-05
221    -5.45453742e-15
222    5.83982537e-05
223    -6.5195355e-05
224    -8.18854424e-06
225    -6.2360424e-15
226    -0.000346441668
227    -0.000384473358
228    -8.73601983e-05
229    -1.21988032e-14
230    -0.00044832051
231    -0.000431539217
232    0.000233163932
233    -1.23805296e-14
234    6.92238488e-06
235    -1.15816276e-15
236    -7.48997595e-06
237    7.29252855e-17
238    -1.85367261e-05
239    -1.72593914e-09
240    3.14414851e-08
241    -1.65658576e-07
242    7.01381338e-07
243    -9.42339812e-06
244    -4.43849645e-05
245    2.5729012e-05
246    4.08116685e-06
247    -2.10326764e-05
248    1.19356609e-15
249    9.11966522e-05
250    -8.06292594e-06
251    0.000120767402
252    1.83137402e-16
253    -9.62432911e-05
254    -1.91306185e-05
255    -0.000125165856
256    4.55965643e-15
257    0.00112388406
258    -0.000183636904
259    5.30102935e-05
260    -1.49241362e-15
261    0.000320526941
262    -0.000314417323
263    -0.000529710912
264    -3.73848462e-15
265    -3.00324468e-05
266    7.13209448e-16
267    -4.75022542e-06
268    6.1007022e-16
269    -5.39360335e-05
270    3.51788844e-06
271    2.00782605e-05
272    -5.27663916e-05
273    1.81080287e-05
274    -1.61983051e-06
275    1.31483961e-05
276    6.32184931e-16
Sym=X
Ene=0.014781
Spin=Alpha
Occup=1
1    1.2859426e-09
2    -1.03778539e-08
3    9.4913189e-08
4    -2.50252611e-07
5    4.44721875e-06
6    2.05334697e-05
7    -1.13648954e-05
8    2.44630308e-06
9    5.63311641e-06
10    1.40573429e-15
11    -3.89102574e-05
12    -2.48787784e-05
13    -2.8876513e-05
14    -5.15750566e-16
15    -1.15475335e-05
16    5.26752777e-05
17    6.53513922e-06
18    4.80159464e-15
19    -0.000625538583
20    0.000119710756
21    -0.000715995505
22    -2.9173222e-15
23    3.84189279e-05
24    0.000414894887
25    -0.000267728588
26    6.10233227e-16
27    -6.44080528e-06
28    7.33248686e-16
29    6.0094355e-06
30    -1.29318838e-15
31    -1.01645958e-05
32    -4.37044833e-06
33    1.60560241e-05
34    0.00016540668
35    0.000325094312
36    1.21679609e-06
37    1.21680942e-06
38    1.94306103e-15
39    -4.25580845e-06
40    2.55990851e-06
41    -3.76633015e-05
42    -0.000652841934
43    -1.82945228e-06
44    -3.46208517e-06
45    4.00964873e-16
46    -0.000230345381
47    -0.000107328682
48    -0.000326205339
49    -0.000317038421
50    -6.0973891e-06
51    0.000103629181
52    4.29804228e-16
53    -1.88210055e-08
54    -1.61288009e-07
55    -6.3179077e-07
56    -2.55885619e-06
57    -4.95670831e-07
58    3.67887498e-05
59    1.95830896e-06
60    -5.144397e-05
61    -2.64249716e-05
62    3.9951926e-15
63    -0.000256700124
64    -0.000237757637
65    -0.000105347635
66    5.61411072e-15
67    0.000313425297
68    9.18476598e-05
69    -2.22183159e-05
70    1.06826525e-14
71    0.0012717246
72    0.000436344904
73    -0.0001479138
74    -1.71645549e-14
75    0.000753225581
76    4.41914712e-06
77    -0.000431771538
78    -1.42641477e-14
79    -0.000103981084
80    -3.25869287e-17
81    2.05883418e-06
82    -1.1481861e-15
83    -0.000114433131
84    -9.52831746e-09
85    -8.72017248e-08
86    -3.24236319e-07
87    -1.50094036e-06
88    5.41447245e-08
89    1.11368463e-05
90    -1.40728171e-05
91    1.54261211e-05
92    3.43689343e-06
93    2.51125877e-15
94    -1.41962319e-05
95    -2.86790984e-05
96    8.78976514e-06
97    3.08935869e-15
98    -3.96779546e-05
99    -4.38441735e-07
100    3.11891159e-06
101    6.6037532e-15
102    0.00013468608
103    1.46730351e-05
104    -1.40457311e-05
105    1.0250824e-14
106    0.000101132874
107    -7.61281602e-05
108    -5.1017355e-05
109    1.43409133e-14
110    9.35945939e-07
111    -4.99890121e-16
112    5.6745884e-06
113    7.19540234e-16
114    -1.80974704e-05
115    -2.07225886e-08
116    -2.07660262e-07
117    -6.3301846e-07
118    -3.44009017e-06
119    5.7184272e-06
120    7.42792098e-05
121    -1.82806883e-05
122    3.1048801e-05
123    -1.91209588e-05
124    -1.3190763e-15
125    -0.000289948414
126    0.000297915906
127    -0.000234542421
128    -2.53926084e-15
129    0.000307649624
130    -0.00027900677
131    0.000122436328
132    -1.82542705e-15
133    0.00203115584
134    -0.00102350066
135    -0.000634031984
136    1.46924312e-15
137    -7.0529216e-05
138    -0.000401644569
139    0.00011474269
140    -4.82595592e-15
141    0.000178649357
142    -8.91081428e-17
143    1.7048583e-05
144    -1.43222159e-15
145    -0.000119365143
146    -1.80487003e-08
147    -1.63251172e-07
148    -6.16293281e-07
149    -2.80229023e-06
150    -3.41331477e-07
151    1.93176652e-05
152    -2.43672501e-05
153    -1.86730423e-05
154    -2.72887481e-06
155    -1.48395999e-15
156    -2.60947578e-05
157    3.80631705e-05
158    2.49331547e-05
159    -2.40854581e-15
160    -1.54105471e-05
161    -3.51953209e-05
162    -2.66011241e-05
163    -4.87648211e-15
164    0.00031219523
165    2.1091191e-05
166    -3.27356298e-05
167    -5.18720724e-15
168    0.00134764321
169    -0.000203720932
170    -6.84779364e-05
171    -4.37090436e-15
172    -1.18403667e-05
173    2.90765394e-16
174    5.33605249e-06
175    4.07082794e-16
176    -1.12703619e-05
177    -0.00109722112
178    -0.00835426549
179    -0.0409338121
180    -0.138946026
181    -0.335945529
182    -0.144052001
183    -0.467474798
184    -0.000280467715
185    0.000283169353
186    6.57773497e-16
187    -0.00428339679
188    0.000193036396
189    -0.00014712968
190    1.5692787e-15
191    0.000268782047
192    -0.000154241652
193    0.000176757217
194    2.42737467e-15
195    -0.00243414455
196    0.000137338894
197    0.000980028386
198    7.72469087e-15
199    -0.00200170625
200    -0.000560843814
201    0.000508124186
202    1.34131883e-14
203    -3.70993581e-05
204    -1.54218356e-16
205    -4.52811251e-05
206    -1.47902439e-15
207    1.89909786e-05
208    1.18528225e-07
209    8.68591905e-07
210    4.49670536e-06
211    1.43194508e-05
212    4.27979612e-05
213    4.37281853e-05
214    3.05682798e-05
215    5.62497436e-06
216    1.74925306e-05
217    2.01150766e-15
218    -3.33978437e-05
219    -1.14846441e-05
220    -5.0559993e-05
221    5.45524631e-15
222    -5.82754389e-05
223    6.50964765e-05
224    8.16312327e-06
225    6.23580735e-15
226    0.000345293821
227    0.000384012237
228    8.71254323e-05
229    1.22037126e-14
230    0.000447498123
231    0.000431364895
232    -0.000233271254
233    1.23887975e-14
234    -6.95424982e-06
235    1.15822021e-15
236    7.48127176e-06
237    -7.29894966e-17
238    1.8524116e-05
239    1.72668251e-09
240    -3.14576745e-08
241    1.65735661e-07
242    -7.01736564e-07
243    9.42803159e-06
244    4.44074364e-05
245    -2.57418712e-05
246    -4.09014489e-06
247    2.10300241e-05
248    -1.19447198e-15
249    -9.12433089e-05
250    8.11656541e-06
251    -0.000120747468
252    -1.85426682e-16
253    9.62227382e-05
254    1.91171079e-05
255    0.000125149018
256    -4.56140216e-15
257    -0.00112451132
258    0.0001837238
259    -5.30884192e-05
260    1.49171963e-15
261    -0.000320796416
262    0.000314257372
263    0.000529455221
264    3.76759419e-15
265    3.00177903e-05
266    -7.13492365e-16
267    4.75376218e-06
268    -6.10047313e-16
269    5.39131465e-05
270    -3.52006972e-06
271    -2.00874401e-05
272    5.27833273e-05
273    -1.81205959e-05
274    1.62557484e-06
275    -1.31475197e-05
276    -6.32913169e-16
Sym=X
Ene=0.021664
Spin=Alpha
Occup=1
1    1.27968303e-09
2    -1.04391663e-08
3    9.47165166e-08
4    -2.51281433e-07
5    4.44835963e-06
6    2.05502908e-05
7    -1.13696216e-05
8    2.45417829e-06
9    5.62717603e-06
10    1.40553273e-15
11    -3.89756028e-05
12    -2.47889707e-05
13    -2.89328704e-05
14    -5.15939194e-16
15    -1.14336553e-05
16    5.26374104e-05
17    6.57021082e-06
18    4.80116407e-15
19    -0.000624945913
20    0.000119762034
21    -0.000715656841
22    -2.92021475e-15
23    3.83854409e-05
24    0.000414860555
25    -0.000267637239
26    5.97070995e-16
27    -6.38355332e-06
28    7.33204026e-16
29    6.01066348e-06
30    -1.29340025e-15
31    -1.01813615e-05
32    -4.4316142e-06
33    1.60430825e-05
34    0.00016528506
35    0.000325023727
36    1.20007301e-06
37    1.20925587e-06
38    1.94331677e-15
39    -4.25857454e-06
40    2.52836438e-06
41    -3.76105281e-05
42    -0.000652614487
43    -1.82435236e-06
44    -3.47862007e-06
45    4.00908124e-16
46    -0.000230346602
47    -0.000107331662
48    -0.000326150434
49    -0.000316961759
50    -6.09738377e-06
51    0.000103629706
52    4.29810392e-16
53    -1.88269563e-08
54    -1.61337495e-07
55    -6.31994613e-07
56    -2.5596146e-06
57    -4.95604823e-07
58    3.68048809e-05
59    1.95780399e-06
60    -5.14443864e-05
61    -2.64097674e-05
62    3.99568493e-15
63    -0.000256784443
64    -0.000237760453
65    -0.000105256946
66    5.61532022e-15
67    0.000313519396
68    9.1865408e-05
69    -2.22624244e-05
70    1.06841834e-14
71    0.00127195566
72    0.000436464513
73    -0.000148004061
74    -1.71697123e-14
75    0.000753540571
76    4.51513414e-06
77    -0.000431754901
78    -1.42608097e-14
79    -0.000103969081
80    -3.25029776e-17
81    2.06401321e-06
82    -1.14860106e-15
83    -0.000114379586
84    -1.19743817e-08
85    -1.05813916e-07
86    -4.15464447e-07
87    -1.81154215e-06
88    -7.13397783e-07
89    1.07766089e-05
90    -1.51803475e-05
91    1.54232316e-05
92    3.43474792e-06
93    2.51150474e-15
94    -1.42131874e-05
95    -2.86829531e-05
96    8.79605839e-06
97    3.09092344e-15
98    -3.96835823e-05
99    -4.36717866e-07
100    3.12071247e-06
101    6.6037447e-15
102    0.000134728735
103    1.46746313e-05
104    -1.4045448e-05
105    1.0254628e-14
106    0.000101327467
107    -7.61096584e-05
108    -5.10264923e-05
109    1.4337986e-14
110    9.40489102e-07
111    -4.99958197e-16
112    5.67610452e-06
113    7.19647722e-16
114    -1.80931625e-05
115    -2.072238e-08