[Molden Format]
[Atoms] (Angs)
  C      1    6     -0.00754183     -1.75895763      0.00000000
  H      2    1     -2.09769850     -1.41880678     -0.00000000
  H      3    1     -0.13527422     -2.83956838     -0.00000000
  H      4    1      0.04053511      2.02026369      0.00000000
  C      5    6     -1.22066484      0.39918184     -0.00000000
  O      6    8     -2.25210141      1.05663720     -0.00000000
  C      7    6      1.24009552      0.27789184      0.00000000
  O      8    8      2.33767996      1.06122493      0.00000000
  N      9    7      0.03634586      1.00852936      0.00000000
  N     10    7     -1.18738304     -0.97903470     -0.00000000
  C     11    6      1.22288875     -1.12258096      0.00000000
  H     12    1      2.15640383     -1.68445878      0.00000000
[GTO]
1    0
S    1    1.000000
   4.56324000E+03    1.96665000E-03 
S    1    1.000000
   6.82024000E+02    1.52306000E-02 
S    1    1.000000
   1.54973000E+02    7.61269000E-02 
S    1    1.000000
   4.44553000E+01    2.60801000E-01 
S    1    1.000000
   1.30290000E+01    6.16462000E-01 
S    1    1.000000
   1.82773000E+00    2.21006000E-01 
SP   3    1.000000
   2.09642000E+01    1.14660000E-01   4.02487000E-02 
   4.80331000E+00    9.19999000E-01   2.37594000E-01 
   1.45933000E+00   -3.03068000E-03   8.15854000E-01 
SP   1    1.000000
   4.83456000E-01    1.00000000E+00   1.00000000E+00 
SP   1    1.000000
   1.45585000E-01    1.00000000E+00   1.00000000E+00 
SP   1    1.000000
   4.38000000E-02    1.00000000E+00   1.00000000E+00 
SP   1    1.000000
   1.31927711E-02    1.00000000E+00   1.00000000E+00 
D    1    1.000000
   6.26000000E-01    1.00000000E+00 

2    0
S    3    1.000000
   3.38650000E+01    2.54938000E-02 
   5.09479000E+00    1.90373000E-01 
   1.15879000E+00    8.52161000E-01 
S    1    1.000000
   3.25840000E-01    1.00000000E+00 
S    1    1.000000
   1.02741000E-01    1.00000000E+00 
S    1    1.000000
   3.60000000E-02    1.00000000E+00 
P    1    1.000000
   7.50000000E-01    1.00000000E+00 

3    0
S    3    1.000000
   3.38650000E+01    2.54938000E-02 
   5.09479000E+00    1.90373000E-01 
   1.15879000E+00    8.52161000E-01 
S    1    1.000000
   3.25840000E-01    1.00000000E+00 
S    1    1.000000
   1.02741000E-01    1.00000000E+00 
S    1    1.000000
   3.60000000E-02    1.00000000E+00 
P    1    1.000000
   7.50000000E-01    1.00000000E+00 

4    0
S    3    1.000000
   3.38650000E+01    2.54938000E-02 
   5.09479000E+00    1.90373000E-01 
   1.15879000E+00    8.52161000E-01 
S    1    1.000000
   3.25840000E-01    1.00000000E+00 
S    1    1.000000
   1.02741000E-01    1.00000000E+00 
S    1    1.000000
   3.60000000E-02    1.00000000E+00 
P    1    1.000000
   7.50000000E-01    1.00000000E+00 

5    0
S    1    1.000000
   4.56324000E+03    1.96665000E-03 
S    1    1.000000
   6.82024000E+02    1.52306000E-02 
S    1    1.000000
   1.54973000E+02    7.61269000E-02 
S    1    1.000000
   4.44553000E+01    2.60801000E-01 
S    1    1.000000
   1.30290000E+01    6.16462000E-01 
S    1    1.000000
   1.82773000E+00    2.21006000E-01 
SP   3    1.000000
   2.09642000E+01    1.14660000E-01   4.02487000E-02 
   4.80331000E+00    9.19999000E-01   2.37594000E-01 
   1.45933000E+00   -3.03068000E-03   8.15854000E-01 
SP   1    1.000000
   4.83456000E-01    1.00000000E+00   1.00000000E+00 
SP   1    1.000000
   1.45585000E-01    1.00000000E+00   1.00000000E+00 
SP   1    1.000000
   4.38000000E-02    1.00000000E+00   1.00000000E+00 
SP   1    1.000000
   1.31927711E-02    1.00000000E+00   1.00000000E+00 
D    1    1.000000
   6.26000000E-01    1.00000000E+00 

6    0
S    1    1.000000
   8.58850000E+03    1.89515000E-03 
S    1    1.000000
   1.29723000E+03    1.43859000E-02 
S    1    1.000000
   2.99296000E+02    7.07320000E-02 
S    1    1.000000
   8.73771000E+01    2.40001000E-01 
S    1    1.000000
   2.56789000E+01    5.94797000E-01 
S    1    1.000000
   3.74004000E+00    2.80802000E-01 
SP   3    1.000000
   4.21175000E+01    1.13889000E-01   3.65114000E-02 
   9.62837000E+00    9.20811000E-01   2.37153000E-01 
   2.85332000E+00   -3.27447000E-03   8.19702000E-01 
SP   1    1.000000
   9.05661000E-01    1.00000000E+00   1.00000000E+00 
SP   1    1.000000
   2.55611000E-01    1.00000000E+00   1.00000000E+00 
SP   1    1.000000
   8.45000000E-02    1.00000000E+00   1.00000000E+00 
SP   1    1.000000
   2.54518072E-02    1.00000000E+00   1.00000000E+00 
D    1    1.000000
   1.29200000E+00    1.00000000E+00 

7    0
S    1    1.000000
   4.56324000E+03    1.96665000E-03 
S    1    1.000000
   6.82024000E+02    1.52306000E-02 
S    1    1.000000
   1.54973000E+02    7.61269000E-02 
S    1    1.000000
   4.44553000E+01    2.60801000E-01 
S    1    1.000000
   1.30290000E+01    6.16462000E-01 
S    1    1.000000
   1.82773000E+00    2.21006000E-01 
SP   3    1.000000
   2.09642000E+01    1.14660000E-01   4.02487000E-02 
   4.80331000E+00    9.19999000E-01   2.37594000E-01 
   1.45933000E+00   -3.03068000E-03   8.15854000E-01 
SP   1    1.000000
   4.83456000E-01    1.00000000E+00   1.00000000E+00 
SP   1    1.000000
   1.45585000E-01    1.00000000E+00   1.00000000E+00 
SP   1    1.000000
   4.38000000E-02    1.00000000E+00   1.00000000E+00 
SP   1    1.000000
   1.31927711E-02    1.00000000E+00   1.00000000E+00 
D    1    1.000000
   6.26000000E-01    1.00000000E+00 

8    0
S    1    1.000000
   8.58850000E+03    1.89515000E-03 
S    1    1.000000
   1.29723000E+03    1.43859000E-02 
S    1    1.000000
   2.99296000E+02    7.07320000E-02 
S    1    1.000000
   8.73771000E+01    2.40001000E-01 
S    1    1.000000
   2.56789000E+01    5.94797000E-01 
S    1    1.000000
   3.74004000E+00    2.80802000E-01 
SP   3    1.000000
   4.21175000E+01    1.13889000E-01   3.65114000E-02 
   9.62837000E+00    9.20811000E-01   2.37153000E-01 
   2.85332000E+00   -3.27447000E-03   8.19702000E-01 
SP   1    1.000000
   9.05661000E-01    1.00000000E+00   1.00000000E+00 
SP   1    1.000000
   2.55611000E-01    1.00000000E+00   1.00000000E+00 
SP   1    1.000000
   8.45000000E-02    1.00000000E+00   1.00000000E+00 
SP   1    1.000000
   2.54518072E-02    1.00000000E+00   1.00000000E+00 
D    1    1.000000
   1.29200000E+00    1.00000000E+00 

9    0
S    1    1.000000
   6.29348000E+03    1.96979000E-03 
S    1    1.000000
   9.49044000E+02    1.49613000E-02 
S    1    1.000000
   2.18776000E+02    7.35006000E-02 
S    1    1.000000
   6.36916000E+01    2.48937000E-01 
S    1    1.000000
   1.88282000E+01    6.02460000E-01 
S    1    1.000000
   2.72023000E+00    2.56202000E-01 
SP   3    1.000000
   3.06331000E+01    1.11906000E-01   3.83119000E-02 
   7.02614000E+00    9.21666000E-01   2.37403000E-01 
   2.11205000E+00   -2.56919000E-03   8.17592000E-01 
SP   1    1.000000
   6.84009000E-01    1.00000000E+00   1.00000000E+00 
SP   1    1.000000
   2.00878000E-01    1.00000000E+00   1.00000000E+00 
SP   1    1.000000
   6.39000000E-02    1.00000000E+00   1.00000000E+00 
SP   1    1.000000
   1.92469880E-02    1.00000000E+00   1.00000000E+00 
D    1    1.000000
   9.13000000E-01    1.00000000E+00 

10    0
S    1    1.000000
   6.29348000E+03    1.96979000E-03 
S    1    1.000000
   9.49044000E+02    1.49613000E-02 
S    1    1.000000
   2.18776000E+02    7.35006000E-02 
S    1    1.000000
   6.36916000E+01    2.48937000E-01 
S    1    1.000000
   1.88282000E+01    6.02460000E-01 
S    1    1.000000
   2.72023000E+00    2.56202000E-01 
SP   3    1.000000
   3.06331000E+01    1.11906000E-01   3.83119000E-02 
   7.02614000E+00    9.21666000E-01   2.37403000E-01 
   2.11205000E+00   -2.56919000E-03   8.17592000E-01 
SP   1    1.000000
   6.84009000E-01    1.00000000E+00   1.00000000E+00 
SP   1    1.000000
   2.00878000E-01    1.00000000E+00   1.00000000E+00 
SP   1    1.000000
   6.39000000E-02    1.00000000E+00   1.00000000E+00 
SP   1    1.000000
   1.92469880E-02    1.00000000E+00   1.00000000E+00 
D    1    1.000000
   9.13000000E-01    1.00000000E+00 

11    0
S    1    1.000000
   4.56324000E+03    1.96665000E-03 
S    1    1.000000
   6.82024000E+02    1.52306000E-02 
S    1    1.000000
   1.54973000E+02    7.61269000E-02 
S    1    1.000000
   4.44553000E+01    2.60801000E-01 
S    1    1.000000
   1.30290000E+01    6.16462000E-01 
S    1    1.000000
   1.82773000E+00    2.21006000E-01 
SP   3    1.000000
   2.09642000E+01    1.14660000E-01   4.02487000E-02 
   4.80331000E+00    9.19999000E-01   2.37594000E-01 
   1.45933000E+00   -3.03068000E-03   8.15854000E-01 
SP   1    1.000000
   4.83456000E-01    1.00000000E+00   1.00000000E+00 
SP   1    1.000000
   1.45585000E-01    1.00000000E+00   1.00000000E+00 
SP   1    1.000000
   4.38000000E-02    1.00000000E+00   1.00000000E+00 
SP   1    1.000000
   1.31927711E-02    1.00000000E+00   1.00000000E+00 
D    1    1.000000
   6.26000000E-01    1.00000000E+00 

12    0
S    3    1.000000
   3.38650000E+01    2.54938000E-02 
   5.09479000E+00    1.90373000E-01 
   1.15879000E+00    8.52161000E-01 
S    1    1.000000
   3.25840000E-01    1.00000000E+00 
S    1    1.000000
   1.02741000E-01    1.00000000E+00 
S    1    1.000000
   3.60000000E-02    1.00000000E+00 
P    1    1.000000
   7.50000000E-01    1.00000000E+00 

[MO]
Sym=X
Ene=0.953987
Spin=Alpha
Occup=1
1    2.21824268e-08
2    2.1816371e-07
3    6.94811087e-07
4    3.66409474e-06
5    -4.20312107e-06
6    -6.03443705e-05
7    1.71363994e-05
8    -2.80036215e-05
9    2.10078215e-05
10    7.46103251e-16
11    0.000233537042
12    -0.000318412846
13    0.000200685253
14    6.71492728e-16
15    -0.000416048617
16    0.000133541724
17    -0.000130456943
18    1.59213121e-15
19    -0.00204540559
20    -0.000170963137
21    -0.00120938888
22    1.06077973e-14
23    0.000134914022
24    0.0001301071
25    -0.000322916299
26    4.67545018e-14
27    -0.000202761292
28    1.59840212e-16
29    -4.32248187e-06
30    7.6015821e-16
31    5.93405564e-05
32    0.0002171786
33    4.70344074e-05
34    0.000431157161
35    0.000252925967
36    5.93885287e-05
37    2.69896363e-05
38    -8.91176019e-16
39    9.73781915e-06
40    0.000112125502
41    -0.000192140434
42    -0.000816228635
43    -1.79694568e-05
44    5.8665674e-05
45    2.16788743e-16
46    4.4651533e-06
47    1.30672792e-05
48    -0.000196614036
49    -0.000269628321
50    6.37165115e-08
51    -2.46725466e-06
52    -1.62759908e-17
53    2.12117836e-08
54    1.76798526e-07
55    7.26424002e-07
56    2.71930765e-06
57    -1.73389768e-07
58    -5.63440225e-05
59    1.89284264e-06
60    1.77799727e-06
61    -5.41160089e-05
62    -1.71691795e-15
63    0.000296308
64    1.38491762e-05
65    -0.000324464625
66    -4.26555522e-15
67    -0.000332708729
68    -7.68240326e-05
69    0.000160150882
70    -5.40649814e-15
71    -0.000842557561
72    -0.000479342414
73    0.000334493877
74    1.92320704e-14
75    -0.00115665214
76    -0.00034877961
77    -7.27704565e-05
78    -1.12456927e-14
79    -4.04277114e-05
80    -2.94924785e-16
81    -1.75854844e-05
82    1.46546234e-15
83    -0.000190990111
84    6.93212387e-09
85    6.96457385e-08
86    2.22318153e-07
87    1.21386594e-06
88    -1.32156394e-06
89    -1.35264117e-05
90    1.41554167e-05
91    -3.42031746e-06
92    1.5984068e-05
93    -8.49515016e-16
94    1.96700151e-05
95    2.03407739e-05
96    -2.63564611e-05
97    -5.54772807e-15
98    2.32945441e-05
99    -1.06923412e-05
100    -3.39797826e-06
101    1.6224728e-16
102    -0.000192146231
103    -9.43112875e-06
104    2.74760446e-06
105    -1.3614829e-14
106    -0.00080739857
107    -8.48782311e-05
108    4.01539852e-05
109    1.02510662e-14
110    -1.69540122e-05
111    2.35157324e-16
112    -4.65018086e-06
113    -3.7445159e-16
114    -1.4874636e-05
115    -1.40089249e-09
116    1.23031459e-08
117    -1.05617269e-07
118    2.94896517e-07
119    -5.00868816e-06
120    -2.27914064e-05
121    1.28558837e-05
122    5.80350679e-06
123    6.46320987e-06
124    1.79551627e-15
125    4.21795811e-05
126    -2.15174272e-05
127    -3.72003671e-05
128    5.72420183e-15
129    5.37403476e-05
130    0.000148564534
131    0.000153770804
132    3.99932512e-15
133    0.000884167806
134    -0.000369496085
135    -7.05270916e-05
136    1.36781847e-14
137    2.99392351e-05
138    -0.00045827234
139    0.000181455811
140    5.66535084e-14
141    -1.18111889e-06
142    -6.00825864e-16
143    -6.50724883e-06
144    8.84283929e-16
145    -7.03423665e-06
146    -5.21249699e-10
147    3.2829632e-09
148    -3.60931249e-08
149    7.51400641e-08
150    -1.64365947e-06
151    -6.45010642e-06
152    3.93234842e-06
153    1.35599042e-06
154    1.10358871e-06
155    1.93176879e-15
156    1.44809142e-05
157    -6.42661388e-06
158    -5.58450026e-06
159    2.55177788e-15
160    -6.21459038e-05
161    3.27876743e-05
162    2.2810312e-05
163    4.90582143e-15
164    -0.000250168549
165    9.75252562e-05
166    3.96021061e-05
167    5.30350165e-15
168    8.43056118e-05
169    3.19880428e-05
170    4.6177465e-05
171    4.0611784e-15
172    8.52074811e-07
173    -4.02911188e-16
174    3.69067832e-07
175    -3.06277939e-16
176    -1.0567867e-07
177    6.54835289e-07
178    5.02136798e-06
179    2.43518816e-05
180    8.36462568e-05
181    0.000193663824
182    5.63178194e-05
183    0.000300063796
184    1.55824004e-05
185    1.24725012e-05
186    1.26185385e-16
187    3.58612541e-05
188    -4.84688929e-05
189    -3.37083549e-05
190    -7.50592325e-16
191    7.2421283e-05
192    -9.53411226e-06
193    3.46288524e-08
194    2.6344959e-15
195    -0.000196195935
196    4.36170491e-05
197    0.000388408951
198    -5.38179541e-15
199    -0.00028100431
200    -0.000344446109
201    0.000185328919
202    -2.44137351e-14
203    2.33999806e-05
204    -5.30744066e-16
205    -6.45823189e-06
206    8.09794132e-16
207    9.82542095e-06
208    0.00109725355
209    0.00835448292
210    0.0409350947
211    0.138948606
212    0.335955156
213    0.144002726
214    0.467519706
215    0.000376634528
216    0.000187361653
217    -6.43382265e-16
218    0.00423512203
219    -0.00027063439
220    -7.524868e-05
221    -1.5316331e-15
222    -0.000257415402
223    0.000202753396
224    5.27065946e-05
225    3.80055754e-16
226    0.00236786693
227    0.000952477114
228    0.000487870268
229    -1.01613971e-14
230    0.00171837002
231    0.00035404939
232    0.000230905065
233    -1.66822107e-14
234    6.63976511e-05
235    -1.28551147e-16
236    1.80784565e-05
237    1.33329351e-16
238    2.63544163e-05
239    -1.55773917e-09
240    3.3117238e-08
241    -1.5979318e-07
242    7.27768787e-07
243    -9.54676718e-06
244    -4.62244928e-05
245    2.64422657e-05
246    1.88626312e-05
247    6.0218113e-06
248    1.89157427e-15
249    9.63783527e-05
250    -0.000111943038
251    -4.45731561e-05
252    4.78410398e-15
253    3.17593616e-05
254    3.48714384e-05
255    3.32994306e-05
256    3.61324089e-15
257    0.00134313093
258    -0.000212255418
259    0.000157297528
260    1.81894452e-15
261    0.000551031116
262    0.000327465785
263    0.000532346521
264    -6.13884872e-14
265    2.92128849e-05
266    5.95495896e-16
267    -7.26209989e-06
268    -4.1071963e-17
269    4.91140894e-05
270    4.43127594e-06
271    1.65245941e-05
272    -3.46126998e-05
273    4.59112437e-05
274    -1.12974833e-05
275    -2.18349799e-06
276    1.52493572e-15
Sym=X
Ene=0.960184
Spin=Alpha
Occup=1
1    -1.29577166e-09
2    1.02807937e-08
3    -9.52201062e-08
4    2.48621035e-07
5    -4.44528564e-06
6    -2.05064061e-05
7    1.13571336e-05
8    -2.43386257e-06
9    -5.64240855e-06
10    -1.40607287e-15
11    3.8805886e-05
12    2.50200794e-05
13    2.87871548e-05
14    5.15441479e-16
15    1.1737562e-05
16    -5.27340056e-05
17    -6.47409869e-06
18    -4.80231789e-15
19    0.000626440583
20    -0.000119638838
21    0.000716541934
22    2.91245503e-15
23    -3.84834098e-05
24    -0.000414954798
25    0.00026787058
26    -6.30936968e-16
27    6.53067717e-06
28    -7.33322074e-16
29    -6.00754257e-06
30    1.29285645e-15
31    1.01383505e-05
32    4.27397815e-06
33    -1.60772217e-05
34    -0.000165597846
35    -0.000325208028
36    -1.24318329e-06
37    -1.22880652e-06
38    -1.94267782e-15
39    4.25150924e-06
40    -2.60961761e-06
41    3.7751021e-05
42    0.000653211843
43    1.8373827e-06
44    3.43607525e-06
45    -4.01066531e-16
46    0.000230343399
47    0.000107321886
48    0.000326293885
49    0.000317156668
50    6.09729051e-06
51    -0.000103627873
52    -4.29802737e-16
53    1.88116176e-08
54    1.61209774e-07
55    6.31469489e-07
56    2.55765521e-06
57    4.95785572e-07
58    -3.67633758e-05
59    -1.95916219e-06
60    5.14432339e-05
61    2.64489594e-05
62    -3.99445882e-15
63    0.000256567342
64    0.000237752619
65    0.000105491094
66    -5.61225159e-15
67    -0.000313273179
68    -9.18109962e-05
69    2.21475492e-05
70    -1.06803067e-14
71    -0.00127133098
72    -0.000436126208
73    0.000147769958
74    1.71557021e-14
75    -0.000752705197
76    -4.26179439e-06
77    0.000431807906
78    1.42688106e-14
79    0.000103999637
80    3.27165974e-17
81    -2.0508911e-06
82    1.14754466e-15
83    0.000114517664
84    7.17585794e-09
85    6.92987947e-08
86    2.36505659e-07
87    1.20216569e-06
88    -7.91699036e-07
89    -1.14807331e-05
90    1.30057304e-05
91    -1.54282668e-05
92    -3.44172243e-06
93    -2.51089842e-15
94    1.41763932e-05
95    2.86717405e-05
96    -8.77913608e-06
97    -3.08692106e-15
98    3.96695235e-05
99    4.42591871e-07
100    -3.11711393e-06
101    -6.60388618e-15
102    -0.000134603105
103    -1.46686439e-05
104    1.40439379e-05
105    -1.02447993e-14
106    -0.000100771051
107    7.61656026e-05
108    5.10004537e-05
109    -1.43454199e-14
110    -9.28664998e-07
111    4.99790783e-16
112    -5.67235011e-06
113    -7.19379713e-16
114    1.81041662e-05
115    2.07234732e-08
116    2.07654475e-07
117    6.33081357e-07
118    3.43994721e-06
119    -5.71566455e-06
120    -7.42668623e-05
121    1.82740273e-05
122    -3.10510453e-05
123    1.91183111e-05
124    1.31829498e-15
125    0.000289925276
126    -0.00029791172
127    0.000234554845
128    2.53673817e-15
129    -0.000307666922
130    0.000278941883
131    -0.000122505956
132    1.82367123e-15
133    -0.00203154122
134    0.00102369729
135    0.000634079968
136    -1.47553317e-15
137    7.051442e-05
138    0.000401851721
139    -0.000114831228
140    4.80127387e-15
141    -0.000178652277
142    8.93730873e-17
143    -1.70447526e-05
144    1.43183534e-15
145    0.000119366869
146    6.21124694e-09
147    7.31996249e-08
148    1.74773589e-07
149    1.29966353e-06
150    -3.37659419e-06
151    -2.1087272e-05
152    1.90237116e-05
153    1.86888942e-05
154    2.7404293e-06
155    1.48311532e-15
156    2.60232498e-05
157    -3.80678514e-05
158    -2.4936185e-05
159    2.40742815e-15
160    1.54506522e-05
161    3.51825358e-05
162    2.65924351e-05
163    4.87433538e-15
164    -0.000312115341
165    -2.11317275e-05
166    3.27201061e-05
167    5.1848945e-15
168    -0.00134773721
169    0.000203717625
170    6.8461934e-05
171    4.36906414e-15
172    1.18455877e-05
173    -2.90590542e-16
174    -5.33531616e-06
175    -4.0695031e-16
176    1.12721415e-05
177    0.00109722095
178    0.00835426424
179    0.0409338061
180    0.138946005
181    0.335945483
182    0.144051993
183    0.467474719
184    0.000280461048
185    -0.000283175
186    -6.57841917e-16
187    0.00428338098
188    -0.000193015707
189    0.000147145077
190    -1.56893331e-15
191    -0.000268815839
192    0.000154247964
193    -0.000176755336
194    -2.42861855e-15
195    0.00243423064
196    -0.000137353733
197    -0.000980203344
198    -7.72211989e-15
199    0.00200185485
200    0.000561018027
201    -0.000508206439
202    -1.34024282e-14
203    3.70892526e-05
204    1.54455797e-16
205    4.52840795e-05
206    1.47867523e-15
207    -1.89957904e-05
208    -6.05829061e-07
209    -4.57889816e-06
210    -2.26763734e-05
211    -7.60278643e-05
212    -0.000191998837
213    -0.000107681037
214    -0.000238198366
215    -5.79225764e-06
216    -1.75757069e-05
217    -2.01123333e-15
218    3.1516782e-05
219    1.16048602e-05
220    5.05932833e-05
221    -5.45459516e-15
222    5.83886949e-05
223    -6.51878459e-05
224    -8.18658717e-06
225    -6.2360292e-15
226    -0.000346353933
227    -0.000384438041
228    -8.73421002e-05
229    -1.21991815e-14
230    -0.000448256397
231    -0.000431526179
232    0.000233172662
233    -1.23811448e-14
234    6.92485229e-06
235    -1.15816764e-15
236    -7.48930454e-06
237    7.29303532e-17
238    -1.85357439e-05
239    -1.72599698e-09
240    3.14427109e-08
241    -1.65664501e-07
242    7.01408282e-07
243    -9.42375183e-06
244    -4.43866767e-05
245    2.57299914e-05
246    4.08186729e-06
247    -2.10324504e-05
248    1.19363649e-15
249    9.12002251e-05
250    -8.06707866e-06
251    0.000120765732
252    1.83315242e-16
253    -9.62422175e-05
254    -1.91292606e-05
255    -0.000125164646
256    4.5597908e-15
257    0.00112393345
258    -0.000183644783
259    5.30160212e-05
260    -1.49234321e-15
261    0.00032054734
262    -0.000314405181
263    -0.000529691122
264    -3.74077127e-15
265    -3.00313698e-05
266    7.13231696e-16
267    -4.75049439e-06
268    6.10068787e-16
269    -5.39342037e-05
270    3.51805235e-06
271    2.00788559e-05
272    -5.27676858e-05
273    1.81098059e-05
274    -1.62024573e-06
275    1.31483129e-05
276    6.32241687e-16
Sym=X
Ene=0.000556
Spin=Alpha
Occup=1
1    2.37360839e-09
2    3.35882964e-10
3    1.28943023e-07
4    -7.02630406e-08
5    4.23750612e-06
6    1.75550465e-05
7    -1.05146522e-05
8    1.06935647e-06
9    6.65844206e-06
10    1.44044106e-15
11    -2.74213366e-05
12    -4.04792997e-05
13    -1.90002382e-05
14    -4.82398543e-16
15    -3.1809648e-05
16    5.91808789e-05
17    2.0537849e-07
18    4.87352014e-15
19    -0.000725515016
20    0.000111063111
21    -0.000774299849
22    -2.3974731e-15
23    4.4849763e-05
24    0.000420719596
25    -0.000283291446
26    2.90505791e-15
27    -1.63889647e-05
28    7.40176896e-16
29    5.78956936e-06
30    -1.25427829e-15
31    -7.23771326e-06
32    6.29242569e-06
33    1.83354821e-05
34    0.0001863788
35    0.000337088082
36    4.12959076e-06
37    2.5390667e-06
38    1.89673299e-15
39    -3.77211051e-06
40    8.06064027e-06
41    -4.69857257e-05
42    -0.000691956091
43    -2.71059419e-06
44    -5.77979165e-07
45    4.10972796e-16
46    -0.000229854628
47    -0.000106588419
48    -0.000335439662
49    -0.000329933585
50    -6.08868521e-06
51    0.00010339189
52    4.28369265e-16
53    -1.77574955e-08
54    -1.52419782e-07
55    -5.95379824e-07
56    -2.42235452e-06
57    -5.03109068e-07
58    3.39833793e-05
59    2.04828319e-06
60    -5.12960412e-05
61    -2.90498829e-05
62    3.90556072e-15
63    -0.000241866584
64    -0.000236790009
65    -0.000121149316
66    5.39737728e-15
67    0.000296804119
68    8.80676278e-05
69    -1.43389182e-05
70    1.04035616e-14
71    0.00122932061
72    0.000412615913
73    -0.00013128668
74    -1.62097068e-14
75    0.000695839551
76    -1.26270203e-05
77    -0.000434706225
78    -1.48076445e-14
79    -0.000105839034
80    -4.70581504e-17
81    1.19294311e-06
82    -1.07470661e-15
83    -0.000123673049
84    -2.14500073e-08
85    -1.77044663e-07
86    -7.70729684e-07
87    -2.99758969e-06
88    -3.86668155e-06
89    8.63262089e-06
90    -1.89035103e-05
91    1.52214291e-05
92    4.2291758e-06
93    2.46619636e-15
94    -1.3273919e-05
95    -2.76399492e-05
96    7.48044735e-06
97    2.81293206e-15
98    -3.84640847e-05
99    -9.57098934e-07
100    2.94288253e-06
101    6.60228381e-15
102    0.000125202614
103    1.42105171e-05
104    -1.3918871e-05
105    9.57055206e-15
106    6.18794744e-05
107    -8.01378732e-05
108    -4.89973589e-05
109    1.48284363e-14
110    1.01172133e-07
111    -4.87639308e-16
112    5.44023722e-06
113    7.00178938e-16
114    -1.88059269e-05
115    -2.07594967e-08
116    -2.0682105e-07
117    -6.37003158e-07
118    -3.42190574e-06
119    5.48113963e-06
120    7.31362961e-05
121    -1.76552022e-05
122    3.13066751e-05
123    -1.87748974e-05
124    -1.22900556e-15
125    -0.00028766151
126    0.00029635515
127    -0.00023620822
128    -2.2549433e-15
129    0.000310108422
130    -0.000271342148
131    0.000129811096
132    -1.62642273e-15
133    0.00207222433
134    -0.00103943669
135    -0.000636239733
136    2.13281224e-15
137    -6.9047066e-05
138    -0.000423549009
139    0.000123272521
140    -2.02829062e-15
141    0.000178282916
142    -1.18529268e-16
143    1.67360249e-05
144    -1.38701227e-15
145    -0.000119609221
146    -3.55184409e-07
147    -2.72747933e-06
148    -1.31920574e-05
149    -4.55884083e-05
150    -0.000106327112
151    -3.15009583e-05
152    -0.000176277005
153    -1.81157889e-05
154    -2.32845688e-06
155    -1.38708954e-15
156    -2.72061104e-05
157    3.74879683e-05
158    2.44726686e-05
159    -2.28013162e-15
160    -1.80901815e-05
161    -3.34913482e-05
162    -2.54078391e-05
163    -4.62920183e-15
164    0.000298638526
165    2.59339135e-05
166    -3.06912009e-05
167    -4.91996e-15
168    0.00134845979
169    -0.000201580047
170    -6.59984136e-05
171    -4.16727046e-15
172    -1.16251799e-05
173    2.70556985e-16
174    5.3735565e-06
175    3.91480997e-16
176    -1.1212929e-05
177    -0.001095893
178    -0.00834415144
179    -0.0408842681
180    -0.138777805
181    -0.335539221
182    -0.14387908
183    -0.466907922
184    -0.000279364518
185    0.000283444842
186    6.62868598e-16
187    -0.00427658638
188    0.000190403471
189    -0.000148598821
190    1.53102054e-15
191    0.000271973688
192    -0.00015446781
193    0.000176602483
194    2.55167877e-15
195    -0.00244091864
196    0.000139443285
197    0.000997873369
198    7.45684456e-15
199    -0.00201253339
200    -0.000576361078
201    0.000516617922
202    1.21972693e-14
203    -3.58986177e-05
204    -1.80054142e-16
205    -4.5542496e-05
206    -1.4373083e-15
207    1.94396716e-05
208    5.39654113e-05
209    0.000410858519
210    0.00201335524
211    0.00683311727
212    0.0165295345
213    0.00711052161
214    0.0229737639
215    2.41014465e-05
216    2.666675e-05
217    1.97728908e-15
218    0.000174474014
219    -2.47528862e-05
220    -5.41941441e-05
221    5.37303666e-15
222    -7.08697279e-05
223    7.49317082e-05
224    1.07376341e-05
225    6.24572729e-15
226    0.000460850596
227    0.000430218468
228    0.000110964369
229    1.16916835e-14
230    0.000531334043
231    0.000448134051
232    -0.000221592718
233    1.15620999e-14
234    -3.68621997e-06
235    1.15043914e-15
236    8.35926912e-06
237    -6.63974005e-17
238    1.97965609e-05
239    1.64802715e-09
240    -2.98026949e-08
241    1.5770434e-07
242    -6.65339689e-07
243    8.94956219e-06
244    4.20932386e-05
245    -2.44177941e-05
246    -3.15675507e-06
247    2.13077828e-05
248    -1.1001694e-15
249    -8.64143835e-05
250    2.60636989e-06
251    -0.000122835833
252    4.98651305e-17
253    9.75314458e-05
254    2.08907258e-05
255    0.000126617389
256    -4.37903524e-15
257    -0.00105654712
258    0.000172610737
259    -4.53527506e-05
260    1.584114e-15
261    -0.00029350215
262    0.000329883749
263    0.000554959083
264    7.39681909e-16
265    3.13990225e-05
266    -6.83359799e-16
267    4.39300143e-06
268    -6.11271523e-16
269    5.62812497e-05
270    -3.2998806e-06
271    -1.92866494e-05
272    5.10344062e-05
273    -1.55662985e-05
274    1.07787552e-06
275    -1.32440639e-05
276    -5.57211806e-16
Sym=X
Ene=0.068236
Spin=Alpha
Occup=1
1    -1.24592308e-09
2    1.077088e-08
3    -9.36582995e-08
4    2.56851508e-07
5    -4.45469816e-06
6    -2.06418549e-05
7    1.1395562e-05
8    -2.49677547e-06
9    -5.59518357e-06
10    -1.40439283e-15
11    3.93302916e-05
12    2.43046241e-05
13    2.92379009e-05
14    5.16942576e-16
15    1.08042874e-05
16    -5.24336124e-05
17    -6.76616202e-06
18    -4.79872846e-15
19    0.000621847597
20    -0.000120023465
21    0.000713827326
22    2.9362337e-15
23    -3.81807066e-05
24    -0.000414661478
25    0.000267143699
26    -5.25852904e-16
27    6.07507811e-06
28    -7.32962165e-16
29    -6.01724793e-06
30    1.29456511e-15
31    1.02716821e-05
32    4.76189458e-06
33    -1.59715392e-05
34    -0.000164628604
35    -0.000324639377
36    -1.10975617e-06
37    -1.16814842e-06
38    -1.94467975e-15
39    4.27337927e-06
40    -2.35762832e-06
41    3.73199884e-05
42    0.000651379377
43    1.79699466e-06
44    3.56789095e-06
45    -4.00579448e-16
46    0.000230352812
47    0.000107350701
48    0.00032585174
49    0.00031654948
50    6.09738675e-06
51    -0.000103633087
52    -4.29840719e-16
53    1.88592526e-08
54    1.61606857e-07
55    6.33100949e-07
56    2.56376513e-06
57    4.95424953e-07
58    -3.68895321e-05
59    -1.95489802e-06
60    5.14471579e-05
61    2.63272583e-05
62    -3.99831781e-15
63    0.000257231243
64    0.000237784258
65    0.000104761115
66    -5.62183631e-15
67    -0.000314017074
68    -9.19837126e-05
69    2.25079878e-05
70    -1.06924525e-14
71    -0.00127321206
72    -0.000437205903
73    0.000148525708
74    1.7198805e-14
75    -0.00075530301
76    -5.04502637e-06
77    0.000431643744
78    1.42433927e-14
79    0.000103909165
80    3.20535512e-17
81    -2.09020889e-06
82    1.15083839e-15
83    0.00011408796
84    4.64699998e-09
85    5.00994747e-08
86    1.42097822e-07
87    8.81896732e-07
88    -1.59408835e-06
89    -1.18900528e-05
90    1.18886503e-05
91    -1.54398967e-05
92    -3.40334547e-06
93    -2.5128068e-15
94    1.42085867e-05
95    2.87192384e-05
96    -8.8394977e-06
97    -3.09939093e-15
98    3.97233171e-05
99    4.17601927e-07
100    -3.12416714e-06
101    -6.60352128e-15
102    -0.000135041292
103    -1.46901804e-05
104    1.40502419e-05
105    -1.02753869e-14
106    -0.00010259855
107    7.59719629e-05
108    5.10921112e-05
109    -1.43223411e-14
110    -9.67009666e-07
111    5.00319836e-16
112    -5.68258198e-06
113    -7.20221423e-16
114    1.80708062e-05
115    2.07203333e-08
116    2.07681492e-07