[Molden Format]
[Atoms] (Angs)
  C      1    6     -0.00714236     -1.70213747     -0.00000000
  H      2    1     -2.06882847     -1.44022412      0.00000000
  H      3    1     -0.12337987     -2.77567521      0.00000000
  H      4    1      0.04651892      1.98813947     -0.00000000
  C      5    6     -1.21953563      0.40211669      0.00000000
  O      6    8     -2.25921553      1.03043814      0.00000000
  C      7    6      1.28797806      0.34644937     -0.00000000
  O      8    8      2.31273661      1.00537216     -0.00000000
  N      9    7      0.03446295      0.97739857     -0.00000000
  N     10    7     -1.17287765     -0.98229824      0.00000000
  C     11    6      1.20107039     -1.10433419     -0.00000000
  H     12    1      2.11220096     -1.67699125     -0.00000000
[GTO]
1    0
S    1    1.000000
   4.56324000E+03    1.96665000E-03 
S    1    1.000000
   6.82024000E+02    1.52306000E-02 
S    1    1.000000
   1.54973000E+02    7.61269000E-02 
S    1    1.000000
   4.44553000E+01    2.60801000E-01 
S    1    1.000000
   1.30290000E+01    6.16462000E-01 
S    1    1.000000
   1.82773000E+00    2.21006000E-01 
SP   3    1.000000
   2.09642000E+01    1.14660000E-01   4.02487000E-02 
   4.80331000E+00    9.19999000E-01   2.37594000E-01 
   1.45933000E+00   -3.03068000E-03   8.15854000E-01 
SP   1    1.000000
   4.83456000E-01    1.00000000E+00   1.00000000E+00 
SP   1    1.000000
   1.45585000E-01    1.00000000E+00   1.00000000E+00 
SP   1    1.000000
   4.38000000E-02    1.00000000E+00   1.00000000E+00 
SP   1    1.000000
   1.31927711E-02    1.00000000E+00   1.00000000E+00 
D    1    1.000000
   6.26000000E-01    1.00000000E+00 

2    0
S    3    1.000000
   3.38650000E+01    2.54938000E-02 
   5.09479000E+00    1.90373000E-01 
   1.15879000E+00    8.52161000E-01 
S    1    1.000000
   3.25840000E-01    1.00000000E+00 
S    1    1.000000
   1.02741000E-01    1.00000000E+00 
S    1    1.000000
   3.60000000E-02    1.00000000E+00 
P    1    1.000000
   7.50000000E-01    1.00000000E+00 

3    0
S    3    1.000000
   3.38650000E+01    2.54938000E-02 
   5.09479000E+00    1.90373000E-01 
   1.15879000E+00    8.52161000E-01 
S    1    1.000000
   3.25840000E-01    1.00000000E+00 
S    1    1.000000
   1.02741000E-01    1.00000000E+00 
S    1    1.000000
   3.60000000E-02    1.00000000E+00 
P    1    1.000000
   7.50000000E-01    1.00000000E+00 

4    0
S    3    1.000000
   3.38650000E+01    2.54938000E-02 
   5.09479000E+00    1.90373000E-01 
   1.15879000E+00    8.52161000E-01 
S    1    1.000000
   3.25840000E-01    1.00000000E+00 
S    1    1.000000
   1.02741000E-01    1.00000000E+00 
S    1    1.000000
   3.60000000E-02    1.00000000E+00 
P    1    1.000000
   7.50000000E-01    1.00000000E+00 

5    0
S    1    1.000000
   4.56324000E+03    1.96665000E-03 
S    1    1.000000
   6.82024000E+02    1.52306000E-02 
S    1    1.000000
   1.54973000E+02    7.61269000E-02 
S    1    1.000000
   4.44553000E+01    2.60801000E-01 
S    1    1.000000
   1.30290000E+01    6.16462000E-01 
S    1    1.000000
   1.82773000E+00    2.21006000E-01 
SP   3    1.000000
   2.09642000E+01    1.14660000E-01   4.02487000E-02 
   4.80331000E+00    9.19999000E-01   2.37594000E-01 
   1.45933000E+00   -3.03068000E-03   8.15854000E-01 
SP   1    1.000000
   4.83456000E-01    1.00000000E+00   1.00000000E+00 
SP   1    1.000000
   1.45585000E-01    1.00000000E+00   1.00000000E+00 
SP   1    1.000000
   4.38000000E-02    1.00000000E+00   1.00000000E+00 
SP   1    1.000000
   1.31927711E-02    1.00000000E+00   1.00000000E+00 
D    1    1.000000
   6.26000000E-01    1.00000000E+00 

6    0
S    1    1.000000
   8.58850000E+03    1.89515000E-03 
S    1    1.000000
   1.29723000E+03    1.43859000E-02 
S    1    1.000000
   2.99296000E+02    7.07320000E-02 
S    1    1.000000
   8.73771000E+01    2.40001000E-01 
S    1    1.000000
   2.56789000E+01    5.94797000E-01 
S    1    1.000000
   3.74004000E+00    2.80802000E-01 
SP   3    1.000000
   4.21175000E+01    1.13889000E-01   3.65114000E-02 
   9.62837000E+00    9.20811000E-01   2.37153000E-01 
   2.85332000E+00   -3.27447000E-03   8.19702000E-01 
SP   1    1.000000
   9.05661000E-01    1.00000000E+00   1.00000000E+00 
SP   1    1.000000
   2.55611000E-01    1.00000000E+00   1.00000000E+00 
SP   1    1.000000
   8.45000000E-02    1.00000000E+00   1.00000000E+00 
SP   1    1.000000
   2.54518072E-02    1.00000000E+00   1.00000000E+00 
D    1    1.000000
   1.29200000E+00    1.00000000E+00 

7    0
S    1    1.000000
   4.56324000E+03    1.96665000E-03 
S    1    1.000000
   6.82024000E+02    1.52306000E-02 
S    1    1.000000
   1.54973000E+02    7.61269000E-02 
S    1    1.000000
   4.44553000E+01    2.60801000E-01 
S    1    1.000000
   1.30290000E+01    6.16462000E-01 
S    1    1.000000
   1.82773000E+00    2.21006000E-01 
SP   3    1.000000
   2.09642000E+01    1.14660000E-01   4.02487000E-02 
   4.80331000E+00    9.19999000E-01   2.37594000E-01 
   1.45933000E+00   -3.03068000E-03   8.15854000E-01 
SP   1    1.000000
   4.83456000E-01    1.00000000E+00   1.00000000E+00 
SP   1    1.000000
   1.45585000E-01    1.00000000E+00   1.00000000E+00 
SP   1    1.000000
   4.38000000E-02    1.00000000E+00   1.00000000E+00 
SP   1    1.000000
   1.31927711E-02    1.00000000E+00   1.00000000E+00 
D    1    1.000000
   6.26000000E-01    1.00000000E+00 

8    0
S    1    1.000000
   8.58850000E+03    1.89515000E-03 
S    1    1.000000
   1.29723000E+03    1.43859000E-02 
S    1    1.000000
   2.99296000E+02    7.07320000E-02 
S    1    1.000000
   8.73771000E+01    2.40001000E-01 
S    1    1.000000
   2.56789000E+01    5.94797000E-01 
S    1    1.000000
   3.74004000E+00    2.80802000E-01 
SP   3    1.000000
   4.21175000E+01    1.13889000E-01   3.65114000E-02 
   9.62837000E+00    9.20811000E-01   2.37153000E-01 
   2.85332000E+00   -3.27447000E-03   8.19702000E-01 
SP   1    1.000000
   9.05661000E-01    1.00000000E+00   1.00000000E+00 
SP   1    1.000000
   2.55611000E-01    1.00000000E+00   1.00000000E+00 
SP   1    1.000000
   8.45000000E-02    1.00000000E+00   1.00000000E+00 
SP   1    1.000000
   2.54518072E-02    1.00000000E+00   1.00000000E+00 
D    1    1.000000
   1.29200000E+00    1.00000000E+00 

9    0
S    1    1.000000
   6.29348000E+03    1.96979000E-03 
S    1    1.000000
   9.49044000E+02    1.49613000E-02 
S    1    1.000000
   2.18776000E+02    7.35006000E-02 
S    1    1.000000
   6.36916000E+01    2.48937000E-01 
S    1    1.000000
   1.88282000E+01    6.02460000E-01 
S    1    1.000000
   2.72023000E+00    2.56202000E-01 
SP   3    1.000000
   3.06331000E+01    1.11906000E-01   3.83119000E-02 
   7.02614000E+00    9.21666000E-01   2.37403000E-01 
   2.11205000E+00   -2.56919000E-03   8.17592000E-01 
SP   1    1.000000
   6.84009000E-01    1.00000000E+00   1.00000000E+00 
SP   1    1.000000
   2.00878000E-01    1.00000000E+00   1.00000000E+00 
SP   1    1.000000
   6.39000000E-02    1.00000000E+00   1.00000000E+00 
SP   1    1.000000
   1.92469880E-02    1.00000000E+00   1.00000000E+00 
D    1    1.000000
   9.13000000E-01    1.00000000E+00 

10    0
S    1    1.000000
   6.29348000E+03    1.96979000E-03 
S    1    1.000000
   9.49044000E+02    1.49613000E-02 
S    1    1.000000
   2.18776000E+02    7.35006000E-02 
S    1    1.000000
   6.36916000E+01    2.48937000E-01 
S    1    1.000000
   1.88282000E+01    6.02460000E-01 
S    1    1.000000
   2.72023000E+00    2.56202000E-01 
SP   3    1.000000
   3.06331000E+01    1.11906000E-01   3.83119000E-02 
   7.02614000E+00    9.21666000E-01   2.37403000E-01 
   2.11205000E+00   -2.56919000E-03   8.17592000E-01 
SP   1    1.000000
   6.84009000E-01    1.00000000E+00   1.00000000E+00 
SP   1    1.000000
   2.00878000E-01    1.00000000E+00   1.00000000E+00 
SP   1    1.000000
   6.39000000E-02    1.00000000E+00   1.00000000E+00 
SP   1    1.000000
   1.92469880E-02    1.00000000E+00   1.00000000E+00 
D    1    1.000000
   9.13000000E-01    1.00000000E+00 

11    0
S    1    1.000000
   4.56324000E+03    1.96665000E-03 
S    1    1.000000
   6.82024000E+02    1.52306000E-02 
S    1    1.000000
   1.54973000E+02    7.61269000E-02 
S    1    1.000000
   4.44553000E+01    2.60801000E-01 
S    1    1.000000
   1.30290000E+01    6.16462000E-01 
S    1    1.000000
   1.82773000E+00    2.21006000E-01 
SP   3    1.000000
   2.09642000E+01    1.14660000E-01   4.02487000E-02 
   4.80331000E+00    9.19999000E-01   2.37594000E-01 
   1.45933000E+00   -3.03068000E-03   8.15854000E-01 
SP   1    1.000000
   4.83456000E-01    1.00000000E+00   1.00000000E+00 
SP   1    1.000000
   1.45585000E-01    1.00000000E+00   1.00000000E+00 
SP   1    1.000000
   4.38000000E-02    1.00000000E+00   1.00000000E+00 
SP   1    1.000000
   1.31927711E-02    1.00000000E+00   1.00000000E+00 
D    1    1.000000
   6.26000000E-01    1.00000000E+00 

12    0
S    3    1.000000
   3.38650000E+01    2.54938000E-02 
   5.09479000E+00    1.90373000E-01 
   1.15879000E+00    8.52161000E-01 
S    1    1.000000
   3.25840000E-01    1.00000000E+00 
S    1    1.000000
   1.02741000E-01    1.00000000E+00 
S    1    1.000000
   3.60000000E-02    1.00000000E+00 
P    1    1.000000
   7.50000000E-01    1.00000000E+00 

[MO]
Sym=X
Ene=0.918274
Spin=Alpha
Occup=1
1    -1.43003357e-08
2    1.31939399e-07
3    -3.58931145e-07
4    5.30513463e-06
5    2.06187054e-05
6    -1.21094507e-05
7    -2.18143881e-07
8    2.31988901e-06
9    -4.11590732e-17
10    -5.30879807e-05
11    -6.16341072e-06
12    -1.39165142e-05
13    5.19264125e-16
14    0.000679623388
15    0.000112983659
16    0.000300087667
17    4.18646491e-15
18    -0.00131269525
19    -0.000430592984
20    0.000449553463
21    -5.06163277e-14
22    -0.000694032104
23    -0.000221950576
24    -9.5802091e-05
25    1.09131258e-13
26    -1.7332419e-05
27    -5.7835552e-17
28    -2.36684452e-06
29    3.60401745e-16
30    1.22160706e-05
31    -7.56514586e-07
32    -3.03224145e-05
33    -1.11217401e-05
34    -0.000182618638
35    -7.15169228e-07
36    -2.58647646e-06
37    -2.64618054e-16
38    3.53055775e-06
39    2.29857118e-06
40    0.00017969791
41    0.000345425158
42    -6.82497402e-06
43    3.11195522e-06
44    -2.58741379e-16
45    -3.71965518e-06
46    -8.62897538e-05
47    -2.17538006e-05
48    -0.000165672097
49    4.67707813e-06
50    1.58265298e-05
51    4.70707009e-16
52    4.73402728e-10
53    1.61388021e-09
54    2.3438675e-08
55    2.14408764e-08
56    5.21674617e-07
57    1.89652916e-06
58    -6.21533574e-07
59    -3.2343712e-06
60    -7.50517133e-07
61    -1.14726144e-15
62    -1.05783474e-05
63    1.88011072e-05
64    2.0985635e-06
65    2.06033657e-15
66    0.000335458313
67    0.000360303539
68    -6.96201972e-05
69    -4.69653094e-15
70    0.00127332496
71    0.00109967929
72    4.51895839e-05
73    -1.97432426e-14
74    0.0013174026
75    0.00030759322
76    0.000436857026
77    -5.66234693e-14
78    4.71287577e-06
79    -2.53066811e-16
80    -5.2755216e-06
81    1.36310831e-16
82    -5.14529914e-07
83    1.15615584e-09
84    9.45668499e-09
85    4.15365835e-08
86    1.60200889e-07
87    2.46989767e-07
88    -2.11530746e-07
89    8.11457415e-07
90    1.14549037e-06
91    7.14578593e-07
92    2.97756231e-16
93    -1.51765871e-06
94    -2.58426734e-06
95    -1.74176508e-06
96    -2.12853932e-15
97    5.11317627e-05
98    2.72808296e-05
99    -1.9199144e-05
100    3.83286439e-15
101    0.000488795476
102    8.21980059e-05
103    -9.67489593e-05
104    -8.32259077e-15
105    0.00220741412
106    0.000319839357
107    -7.63660951e-05
108    1.95400297e-14
109    -1.72940317e-06
110    2.28107808e-17
111    -1.21484483e-06
112    -3.86619052e-16
113    -6.90259464e-07
114    1.07287359e-08
115    1.28622114e-07
116    3.67382493e-07
117    3.32915116e-06
118    1.50837459e-05
119    0.000188772202
120    -1.24795057e-05
121    -1.56970491e-05
122    -1.40737483e-05
123    1.50344573e-15
124    -0.000622711763
125    -0.000640315417
126    -0.000429729234
127    -1.119024e-15
128    0.000555200238
129    -0.000224753015
130    -0.000243088573
131    5.86115019e-15
132    0.00191948166
133    0.00295881666
134    0.00104445545
135    -7.13705931e-14
136    -8.75525095e-05
137    0.00048485843
138    -0.00087711549
139    6.64560065e-14
140    -0.000366539749
141    2.87765331e-17
142    0.000113378402
143    7.57902305e-17
144    -0.000165656357
145    -0.00104321741
146    -0.00793579067
147    -0.0389111521
148    -0.132419071
149    -0.327730994
150    -0.156373333
151    -0.470647966
152    0.00168339382
153    0.00106120541
154    8.80789785e-18
155    -0.0057583023
156    -0.000805366829
157    -0.000503636462
158    2.38153098e-15
159    0.00152352878
160    7.84759205e-05
161    4.49059641e-05
162    -4.08773314e-15
163    -0.00291493981
164    0.00021733952
165    0.000190750346
166    1.49633937e-14
167    -0.00636564499
168    0.0011686075
169    0.000422894845
170    3.05967235e-15
171    0.000426843794
172    -2.35236302e-16
173    0.000118242376
174    -1.37388032e-16
175    0.000213806467
176    1.2568308e-09
177    -2.59849698e-08
178    1.25648172e-07
179    -5.70222724e-07
180    6.82346823e-06
181    2.70308072e-05
182    -1.89153121e-05
183    2.49952594e-05
184    -1.61347973e-06
185    -1.9488675e-16
186    -1.2078563e-05
187    -9.29694739e-05
188    1.53054881e-05
189    1.31112184e-15
190    -0.000315468604
191    0.000159417064
192    0.000267423122
193    -5.6616292e-15
194    -0.000210254513
195    0.000450254992
196    4.19093027e-05
197    2.92018373e-14
198    0.00205385116
199    0.00282087052
200    4.05506837e-05
201    2.47334576e-14
202    1.7614321e-05
203    -5.88396444e-16
204    1.09565754e-05
205    7.55041852e-17
206    -4.87196076e-05
207    1.97609632e-10
208    -4.4357289e-09
209    2.10977961e-08
210    -9.64130137e-08
211    1.1091457e-06
212    4.39304283e-06
213    -2.8291817e-06
214    -6.22571602e-08
215    -6.44615381e-07
216    -8.29297833e-16
217    -3.65737504e-06
218    -2.16215784e-06
219    2.72404842e-06
220    2.55545702e-15
221    -0.000149567146
222    -0.000131577946
223    -4.18166676e-05
224    -6.97532578e-15
225    -0.000744233501
226    -0.00029974993
227    -4.49104221e-05
228    2.91821111e-14
229    0.000144952659
230    -0.000294286219
231    0.000144720869
232    -1.33532461e-14
233    4.99688062e-06
234    -1.44613302e-16
235    -1.1908854e-06
236    -1.29314881e-16
237    2.18090218e-06
238    -6.56712185e-10
239    -2.3108978e-08
240    1.24319578e-08
241    -4.62177645e-07
242    3.30472691e-06
243    1.7422226e-05
244    -1.15455639e-05
245    1.00619095e-05
246    2.32729459e-05
247    -9.58650601e-16
248    -3.56721001e-06
249    -2.17519275e-05
250    -0.000130218986
251    4.20615501e-15
252    -0.00063123213
253    0.000479493534
254    -7.72301553e-05
255    -1.06464141e-14
256    0.00150635773
257    -0.00145020829
258    -0.000331100053
259    7.46328497e-14
260    -0.000801745079
261    -0.000327740745
262    -0.000124104841
263    -1.28918207e-13
264    -5.98797571e-05
265    1.38205363e-16
266    5.85371693e-06
267    3.02982249e-16
268    6.18353252e-05
269    -3.67795023e-06
270    -0.000138025355
271    -3.50840057e-05
272    0.000920689378
273    2.89661486e-05
274    -1.65177071e-05
275    1.40821707e-16
[5D]