[Molden Format]
[Atoms] (Angs)
  C      1    6     -0.00714236     -1.70213747     -0.00000000
  H      2    1     -2.06882847     -1.44022412      0.00000000
  H      3    1     -0.12337987     -2.77567521      0.00000000
  H      4    1      0.04651892      1.98813947     -0.00000000
  C      5    6     -1.21953563      0.40211669      0.00000000
  O      6    8     -2.25921553      1.03043814      0.00000000
  C      7    6      1.28797806      0.34644937     -0.00000000
  O      8    8      2.31273661      1.00537216     -0.00000000
  N      9    7      0.03446295      0.97739857     -0.00000000
  N     10    7     -1.17287765     -0.98229824      0.00000000
  C     11    6      1.20107039     -1.10433419     -0.00000000
  H     12    1      2.11220096     -1.67699125     -0.00000000
[GTO]
1    0
S    1    1.000000
   4.56324000E+03    1.96665000E-03 
S    1    1.000000
   6.82024000E+02    1.52306000E-02 
S    1    1.000000
   1.54973000E+02    7.61269000E-02 
S    1    1.000000
   4.44553000E+01    2.60801000E-01 
S    1    1.000000
   1.30290000E+01    6.16462000E-01 
S    1    1.000000
   1.82773000E+00    2.21006000E-01 
SP   3    1.000000
   2.09642000E+01    1.14660000E-01   4.02487000E-02 
   4.80331000E+00    9.19999000E-01   2.37594000E-01 
   1.45933000E+00   -3.03068000E-03   8.15854000E-01 
SP   1    1.000000
   4.83456000E-01    1.00000000E+00   1.00000000E+00 
SP   1    1.000000
   1.45585000E-01    1.00000000E+00   1.00000000E+00 
SP   1    1.000000
   4.38000000E-02    1.00000000E+00   1.00000000E+00 
SP   1    1.000000
   1.31927711E-02    1.00000000E+00   1.00000000E+00 
D    1    1.000000
   6.26000000E-01    1.00000000E+00 

2    0
S    3    1.000000
   3.38650000E+01    2.54938000E-02 
   5.09479000E+00    1.90373000E-01 
   1.15879000E+00    8.52161000E-01 
S    1    1.000000
   3.25840000E-01    1.00000000E+00 
S    1    1.000000
   1.02741000E-01    1.00000000E+00 
S    1    1.000000
   3.60000000E-02    1.00000000E+00 
P    1    1.000000
   7.50000000E-01    1.00000000E+00 

3    0
S    3    1.000000
   3.38650000E+01    2.54938000E-02 
   5.09479000E+00    1.90373000E-01 
   1.15879000E+00    8.52161000E-01 
S    1    1.000000
   3.25840000E-01    1.00000000E+00 
S    1    1.000000
   1.02741000E-01    1.00000000E+00 
S    1    1.000000
   3.60000000E-02    1.00000000E+00 
P    1    1.000000
   7.50000000E-01    1.00000000E+00 

4    0
S    3    1.000000
   3.38650000E+01    2.54938000E-02 
   5.09479000E+00    1.90373000E-01 
   1.15879000E+00    8.52161000E-01 
S    1    1.000000
   3.25840000E-01    1.00000000E+00 
S    1    1.000000
   1.02741000E-01    1.00000000E+00 
S    1    1.000000
   3.60000000E-02    1.00000000E+00 
P    1    1.000000
   7.50000000E-01    1.00000000E+00 

5    0
S    1    1.000000
   4.56324000E+03    1.96665000E-03 
S    1    1.000000
   6.82024000E+02    1.52306000E-02 
S    1    1.000000
   1.54973000E+02    7.61269000E-02 
S    1    1.000000
   4.44553000E+01    2.60801000E-01 
S    1    1.000000
   1.30290000E+01    6.16462000E-01 
S    1    1.000000
   1.82773000E+00    2.21006000E-01 
SP   3    1.000000
   2.09642000E+01    1.14660000E-01   4.02487000E-02 
   4.80331000E+00    9.19999000E-01   2.37594000E-01 
   1.45933000E+00   -3.03068000E-03   8.15854000E-01 
SP   1    1.000000
   4.83456000E-01    1.00000000E+00   1.00000000E+00 
SP   1    1.000000
   1.45585000E-01    1.00000000E+00   1.00000000E+00 
SP   1    1.000000
   4.38000000E-02    1.00000000E+00   1.00000000E+00 
SP   1    1.000000
   1.31927711E-02    1.00000000E+00   1.00000000E+00 
D    1    1.000000
   6.26000000E-01    1.00000000E+00 

6    0
S    1    1.000000
   8.58850000E+03    1.89515000E-03 
S    1    1.000000
   1.29723000E+03    1.43859000E-02 
S    1    1.000000
   2.99296000E+02    7.07320000E-02 
S    1    1.000000
   8.73771000E+01    2.40001000E-01 
S    1    1.000000
   2.56789000E+01    5.94797000E-01 
S    1    1.000000
   3.74004000E+00    2.80802000E-01 
SP   3    1.000000
   4.21175000E+01    1.13889000E-01   3.65114000E-02 
   9.62837000E+00    9.20811000E-01   2.37153000E-01 
   2.85332000E+00   -3.27447000E-03   8.19702000E-01 
SP   1    1.000000
   9.05661000E-01    1.00000000E+00   1.00000000E+00 
SP   1    1.000000
   2.55611000E-01    1.00000000E+00   1.00000000E+00 
SP   1    1.000000
   8.45000000E-02    1.00000000E+00   1.00000000E+00 
SP   1    1.000000
   2.54518072E-02    1.00000000E+00   1.00000000E+00 
D    1    1.000000
   1.29200000E+00    1.00000000E+00 

7    0
S    1    1.000000
   4.56324000E+03    1.96665000E-03 
S    1    1.000000
   6.82024000E+02    1.52306000E-02 
S    1    1.000000
   1.54973000E+02    7.61269000E-02 
S    1    1.000000
   4.44553000E+01    2.60801000E-01 
S    1    1.000000
   1.30290000E+01    6.16462000E-01 
S    1    1.000000
   1.82773000E+00    2.21006000E-01 
SP   3    1.000000
   2.09642000E+01    1.14660000E-01   4.02487000E-02 
   4.80331000E+00    9.19999000E-01   2.37594000E-01 
   1.45933000E+00   -3.03068000E-03   8.15854000E-01 
SP   1    1.000000
   4.83456000E-01    1.00000000E+00   1.00000000E+00 
SP   1    1.000000
   1.45585000E-01    1.00000000E+00   1.00000000E+00 
SP   1    1.000000
   4.38000000E-02    1.00000000E+00   1.00000000E+00 
SP   1    1.000000
   1.31927711E-02    1.00000000E+00   1.00000000E+00 
D    1    1.000000
   6.26000000E-01    1.00000000E+00 

8    0
S    1    1.000000
   8.58850000E+03    1.89515000E-03 
S    1    1.000000
   1.29723000E+03    1.43859000E-02 
S    1    1.000000
   2.99296000E+02    7.07320000E-02 
S    1    1.000000
   8.73771000E+01    2.40001000E-01 
S    1    1.000000
   2.56789000E+01    5.94797000E-01 
S    1    1.000000
   3.74004000E+00    2.80802000E-01 
SP   3    1.000000
   4.21175000E+01    1.13889000E-01   3.65114000E-02 
   9.62837000E+00    9.20811000E-01   2.37153000E-01 
   2.85332000E+00   -3.27447000E-03   8.19702000E-01 
SP   1    1.000000
   9.05661000E-01    1.00000000E+00   1.00000000E+00 
SP   1    1.000000
   2.55611000E-01    1.00000000E+00   1.00000000E+00 
SP   1    1.000000
   8.45000000E-02    1.00000000E+00   1.00000000E+00 
SP   1    1.000000
   2.54518072E-02    1.00000000E+00   1.00000000E+00 
D    1    1.000000
   1.29200000E+00    1.00000000E+00 

9    0
S    1    1.000000
   6.29348000E+03    1.96979000E-03 
S    1    1.000000
   9.49044000E+02    1.49613000E-02 
S    1    1.000000
   2.18776000E+02    7.35006000E-02 
S    1    1.000000
   6.36916000E+01    2.48937000E-01 
S    1    1.000000
   1.88282000E+01    6.02460000E-01 
S    1    1.000000
   2.72023000E+00    2.56202000E-01 
SP   3    1.000000
   3.06331000E+01    1.11906000E-01   3.83119000E-02 
   7.02614000E+00    9.21666000E-01   2.37403000E-01 
   2.11205000E+00   -2.56919000E-03   8.17592000E-01 
SP   1    1.000000
   6.84009000E-01    1.00000000E+00   1.00000000E+00 
SP   1    1.000000
   2.00878000E-01    1.00000000E+00   1.00000000E+00 
SP   1    1.000000
   6.39000000E-02    1.00000000E+00   1.00000000E+00 
SP   1    1.000000
   1.92469880E-02    1.00000000E+00   1.00000000E+00 
D    1    1.000000
   9.13000000E-01    1.00000000E+00 

10    0
S    1    1.000000
   6.29348000E+03    1.96979000E-03 
S    1    1.000000
   9.49044000E+02    1.49613000E-02 
S    1    1.000000
   2.18776000E+02    7.35006000E-02 
S    1    1.000000
   6.36916000E+01    2.48937000E-01 
S    1    1.000000
   1.88282000E+01    6.02460000E-01 
S    1    1.000000
   2.72023000E+00    2.56202000E-01 
SP   3    1.000000
   3.06331000E+01    1.11906000E-01   3.83119000E-02 
   7.02614000E+00    9.21666000E-01   2.37403000E-01 
   2.11205000E+00   -2.56919000E-03   8.17592000E-01 
SP   1    1.000000
   6.84009000E-01    1.00000000E+00   1.00000000E+00 
SP   1    1.000000
   2.00878000E-01    1.00000000E+00   1.00000000E+00 
SP   1    1.000000
   6.39000000E-02    1.00000000E+00   1.00000000E+00 
SP   1    1.000000
   1.92469880E-02    1.00000000E+00   1.00000000E+00 
D    1    1.000000
   9.13000000E-01    1.00000000E+00 

11    0
S    1    1.000000
   4.56324000E+03    1.96665000E-03 
S    1    1.000000
   6.82024000E+02    1.52306000E-02 
S    1    1.000000
   1.54973000E+02    7.61269000E-02 
S    1    1.000000
   4.44553000E+01    2.60801000E-01 
S    1    1.000000
   1.30290000E+01    6.16462000E-01 
S    1    1.000000
   1.82773000E+00    2.21006000E-01 
SP   3    1.000000
   2.09642000E+01    1.14660000E-01   4.02487000E-02 
   4.80331000E+00    9.19999000E-01   2.37594000E-01 
   1.45933000E+00   -3.03068000E-03   8.15854000E-01 
SP   1    1.000000
   4.83456000E-01    1.00000000E+00   1.00000000E+00 
SP   1    1.000000
   1.45585000E-01    1.00000000E+00   1.00000000E+00 
SP   1    1.000000
   4.38000000E-02    1.00000000E+00   1.00000000E+00 
SP   1    1.000000
   1.31927711E-02    1.00000000E+00   1.00000000E+00 
D    1    1.000000
   6.26000000E-01    1.00000000E+00 

12    0
S    3    1.000000
   3.38650000E+01    2.54938000E-02 
   5.09479000E+00    1.90373000E-01 
   1.15879000E+00    8.52161000E-01 
S    1    1.000000
   3.25840000E-01    1.00000000E+00 
S    1    1.000000
   1.02741000E-01    1.00000000E+00 
S    1    1.000000
   3.60000000E-02    1.00000000E+00 
P    1    1.000000
   7.50000000E-01    1.00000000E+00 

[MO]
Sym=X
Ene=0.004069
Spin=Alpha
Occup=1
1    1.43008095e-08
2    -1.31951574e-07
3    3.58946639e-07
4    -5.30554655e-06
5    -2.06203541e-05
6    1.21102846e-05
7    2.1857998e-07
8    -2.32005765e-06
9    4.13850713e-17
10    5.30927324e-05
11    6.15910482e-06
12    1.39179698e-05
13    -5.18609068e-16
14    -0.000679658054
15    -0.000112990086
16    -0.000300123416
17    -4.18654887e-15
18    0.00131198878
19    0.000430595666
20    -0.000449846354
21    5.06281247e-14
22    0.000693954126
23    0.000221893436
24    9.5849803e-05
25    -1.09128729e-13
26    1.73304842e-05
27    5.77610913e-17
28    2.36748006e-06
29    -3.60342637e-16
30    -1.2217305e-05
31    7.58220736e-07
32    3.03191558e-05
33    1.11131125e-05
34    0.000182640748
35    7.15954345e-07
36    2.58441492e-06
37    2.6466457e-16
38    -3.53022391e-06
39    -2.30350374e-06
40    -0.00017972469
41    -0.000345606936
42    6.82470591e-06
43    -3.11287191e-06
44    2.58846378e-16
45    3.72106014e-06
46    8.62897388e-05
47    2.17308669e-05
48    0.000165700942
49    -4.67509068e-06
50    -1.58264714e-05
51    -4.70778497e-16
52    -4.75612154e-10
53    -1.64438156e-09
54    -2.35099838e-08
55    -2.22075258e-08
56    -5.23655248e-07
57    -1.92734116e-06
58    6.18676911e-07
59    3.22674098e-06
60    7.55516851e-07
61    1.14744613e-15
62    1.06891845e-05
63    -1.89144331e-05
64    -2.02991843e-06
65    -2.06133065e-15
66    -0.000335675506
67    -0.000360185629
68    6.95434772e-05
69    4.69719125e-15
70    -0.00127384443
71    -0.00109900764
72    -4.56138216e-05
73    1.97547841e-14
74    -0.00131705009
75    -0.000307564142
76    -0.000436798493
77    5.66250462e-14
78    -4.77406627e-06
79    2.52917859e-16
80    5.25557865e-06
81    -1.36385604e-16
82    5.45546904e-07
83    2.48875453e-07
84    1.89255828e-06
85    9.28464984e-06
86    3.15793221e-05
87    7.83101187e-05
88    3.74546349e-05
89    0.000112079993
90    -7.43931599e-07
91    -9.45295374e-07
92    -2.97809673e-16
93    2.69240032e-06
94    2.39434476e-06
95    1.85068077e-06
96    2.12817445e-15
97    -5.12739262e-05
98    -2.71752982e-05
99    1.91402027e-05
100    -3.83246359e-15
101    -0.000488001217
102    -8.21433997e-05
103    9.67118543e-05
104    8.32045192e-15
105    -0.00220555607
106    -0.000319494721
107    7.61977344e-05
108    -1.95391429e-14
109    1.75140561e-06
110    -2.2935119e-17
111    1.1932767e-06
112    3.86577686e-16
113    6.77352398e-07
114    -1.0728951e-08
115    -1.28621595e-07
116    -3.6739591e-07
117    -3.32913378e-06
118    -1.50841898e-05
119    -0.000188773921
120    1.24803904e-05
121    1.56975846e-05
122    1.40738826e-05
123    -1.50355973e-15
124    0.000622716186
125    0.000640312408
126    0.000429730024
127    1.11993455e-15
128    -0.000555183818
129    0.000224812195
130    0.000243128297
131    -5.86255712e-15
132    -0.0019199541
133    -0.00295853246
134    -0.00104434957
135    7.13877724e-14
136    8.74469789e-05
137    -0.000484813095
138    0.000877050028
139    -6.64447881e-14
140    0.000366540639
141    -2.89023028e-17
142    -0.000113378524
143    -7.58244511e-17
144    0.000165657736
145    0.00104321738
146    0.00793579044
147    0.038911151
148    0.132419067
149    0.327730985
150    0.156373328
151    0.470647953
152    -0.00168339335
153    -0.00106120541
154    -8.62692698e-18
155    0.00575830506
156    0.000805365374
157    0.000503636347
158    -2.38160799e-15
159    -0.00152355218
160    -7.84616872e-05
161    -4.48997591e-05
162    4.08890961e-15
163    0.00291482583
164    -0.000217330009
165    -0.000190732536
166    -1.49646526e-14
167    0.00636504514
168    -0.00116851153
169    -0.000422875046
170    -3.06259418e-15
171    -0.000426844193
172    2.35135365e-16
173    -0.000118242066
174    1.37287406e-16
175    -0.000213806569
176    -1.25707013e-09
177    2.59919898e-08
178    -1.25676628e-07
179    5.70373344e-07
180    -6.8251587e-06
181    -2.7037786e-05
182    1.89201288e-05
183    -2.49911303e-05
184    1.61320775e-06
185    1.95298594e-16
186    1.20882967e-05
187    9.29554766e-05
188    -1.53058402e-05
189    -1.31253595e-15
190    0.000315474093
191    -0.000159415004
192    -0.000267426811
193    5.66499417e-15
194    0.000210302922
195    -0.000450268534
196    -4.18593907e-05
197    -2.92116393e-14
198    -0.00205421207
199    -0.00282028474
200    -4.05655892e-05
201    -2.47437083e-14
202    -1.7613126e-05
203    5.88326956e-16
204    -1.09577091e-05
205    -7.56201635e-17
206    4.87275478e-05
207    -1.97943112e-10
208    4.44264371e-09
209    -2.11311988e-08
210    9.65642258e-08
211    -1.11097155e-06
212    -4.40047838e-06
213    2.8342437e-06
214    6.44143034e-08
215    6.40997946e-07
216    8.29789439e-16
217    3.66877066e-06
218    2.15627255e-06
219    -2.7112789e-06
220    -2.55632046e-15
221    0.00014956156
222    0.000131578236
223    4.18101554e-05
224    6.97853382e-15
225    0.000744273773
226    0.00029972997
227    4.4903215e-05
228    -2.91913294e-14
229    -0.000145408657
230    0.00029437657
231    -0.000144904098
232    1.33499741e-14
233    -5.00199208e-06
234    1.44566038e-16
235    1.18988537e-06
236    1.29377995e-16
237    -2.1867378e-06
238    6.56721084e-10
239    2.31090426e-08
240    -1.24315933e-08
241    4.62177953e-07
242    -3.30474294e-06
243    -1.74224986e-05
244    1.15456342e-05
245    -1.00615982e-05
246    -2.32729606e-05
247    9.5891756e-16
248    3.56720868e-06
249    2.17486022e-05
250    0.000130219301
251    -4.205678e-15
252    0.000631290293
253    -0.000479529195
254    7.7250033e-05
255    1.06482643e-14
256    -0.0015055895
257    0.00145002701
258    0.000331204639
259    -7.46449079e-14
260    0.000801712121
261    0.000327712273
262    0.000124036819
263    1.28911795e-13
264    5.98812006e-05
265    -1.38207768e-16
266    -5.85338532e-06
267    -3.03085144e-16
268    -6.1835277e-05
269    3.67810312e-06
270    0.000138031453
271    3.50977166e-05
272    -0.000920669608
273    -2.89670652e-05
274    1.65183235e-05
275    -1.40713839e-16
[5D]