[Molden Format]
[Atoms] (Angs)
  C      1    6     -0.00714236     -1.70213747     -0.00000000
  H      2    1     -2.06882847     -1.44022412      0.00000000
  H      3    1     -0.12337987     -2.77567521      0.00000000
  H      4    1      0.04651892      1.98813947     -0.00000000
  C      5    6     -1.21953563      0.40211669      0.00000000
  O      6    8     -2.25921553      1.03043814      0.00000000
  C      7    6      1.28797806      0.34644937     -0.00000000
  O      8    8      2.31273661      1.00537216     -0.00000000
  N      9    7      0.03446295      0.97739857     -0.00000000
  N     10    7     -1.17287765     -0.98229824      0.00000000
  C     11    6      1.20107039     -1.10433419     -0.00000000
  H     12    1      2.11220096     -1.67699125     -0.00000000
[GTO]
1    0
S    1    1.000000
   4.56324000E+03    1.96665000E-03 
S    1    1.000000
   6.82024000E+02    1.52306000E-02 
S    1    1.000000
   1.54973000E+02    7.61269000E-02 
S    1    1.000000
   4.44553000E+01    2.60801000E-01 
S    1    1.000000
   1.30290000E+01    6.16462000E-01 
S    1    1.000000
   1.82773000E+00    2.21006000E-01 
SP   3    1.000000
   2.09642000E+01    1.14660000E-01   4.02487000E-02 
   4.80331000E+00    9.19999000E-01   2.37594000E-01 
   1.45933000E+00   -3.03068000E-03   8.15854000E-01 
SP   1    1.000000
   4.83456000E-01    1.00000000E+00   1.00000000E+00 
SP   1    1.000000
   1.45585000E-01    1.00000000E+00   1.00000000E+00 
SP   1    1.000000
   4.38000000E-02    1.00000000E+00   1.00000000E+00 
SP   1    1.000000
   1.31927711E-02    1.00000000E+00   1.00000000E+00 
D    1    1.000000
   6.26000000E-01    1.00000000E+00 

2    0
S    3    1.000000
   3.38650000E+01    2.54938000E-02 
   5.09479000E+00    1.90373000E-01 
   1.15879000E+00    8.52161000E-01 
S    1    1.000000
   3.25840000E-01    1.00000000E+00 
S    1    1.000000
   1.02741000E-01    1.00000000E+00 
S    1    1.000000
   3.60000000E-02    1.00000000E+00 
P    1    1.000000
   7.50000000E-01    1.00000000E+00 

3    0
S    3    1.000000
   3.38650000E+01    2.54938000E-02 
   5.09479000E+00    1.90373000E-01 
   1.15879000E+00    8.52161000E-01 
S    1    1.000000
   3.25840000E-01    1.00000000E+00 
S    1    1.000000
   1.02741000E-01    1.00000000E+00 
S    1    1.000000
   3.60000000E-02    1.00000000E+00 
P    1    1.000000
   7.50000000E-01    1.00000000E+00 

4    0
S    3    1.000000
   3.38650000E+01    2.54938000E-02 
   5.09479000E+00    1.90373000E-01 
   1.15879000E+00    8.52161000E-01 
S    1    1.000000
   3.25840000E-01    1.00000000E+00 
S    1    1.000000
   1.02741000E-01    1.00000000E+00 
S    1    1.000000
   3.60000000E-02    1.00000000E+00 
P    1    1.000000
   7.50000000E-01    1.00000000E+00 

5    0
S    1    1.000000
   4.56324000E+03    1.96665000E-03 
S    1    1.000000
   6.82024000E+02    1.52306000E-02 
S    1    1.000000
   1.54973000E+02    7.61269000E-02 
S    1    1.000000
   4.44553000E+01    2.60801000E-01 
S    1    1.000000
   1.30290000E+01    6.16462000E-01 
S    1    1.000000
   1.82773000E+00    2.21006000E-01 
SP   3    1.000000
   2.09642000E+01    1.14660000E-01   4.02487000E-02 
   4.80331000E+00    9.19999000E-01   2.37594000E-01 
   1.45933000E+00   -3.03068000E-03   8.15854000E-01 
SP   1    1.000000
   4.83456000E-01    1.00000000E+00   1.00000000E+00 
SP   1    1.000000
   1.45585000E-01    1.00000000E+00   1.00000000E+00 
SP   1    1.000000
   4.38000000E-02    1.00000000E+00   1.00000000E+00 
SP   1    1.000000
   1.31927711E-02    1.00000000E+00   1.00000000E+00 
D    1    1.000000
   6.26000000E-01    1.00000000E+00 

6    0
S    1    1.000000
   8.58850000E+03    1.89515000E-03 
S    1    1.000000
   1.29723000E+03    1.43859000E-02 
S    1    1.000000
   2.99296000E+02    7.07320000E-02 
S    1    1.000000
   8.73771000E+01    2.40001000E-01 
S    1    1.000000
   2.56789000E+01    5.94797000E-01 
S    1    1.000000
   3.74004000E+00    2.80802000E-01 
SP   3    1.000000
   4.21175000E+01    1.13889000E-01   3.65114000E-02 
   9.62837000E+00    9.20811000E-01   2.37153000E-01 
   2.85332000E+00   -3.27447000E-03   8.19702000E-01 
SP   1    1.000000
   9.05661000E-01    1.00000000E+00   1.00000000E+00 
SP   1    1.000000
   2.55611000E-01    1.00000000E+00   1.00000000E+00 
SP   1    1.000000
   8.45000000E-02    1.00000000E+00   1.00000000E+00 
SP   1    1.000000
   2.54518072E-02    1.00000000E+00   1.00000000E+00 
D    1    1.000000
   1.29200000E+00    1.00000000E+00 

7    0
S    1    1.000000
   4.56324000E+03    1.96665000E-03 
S    1    1.000000
   6.82024000E+02    1.52306000E-02 
S    1    1.000000
   1.54973000E+02    7.61269000E-02 
S    1    1.000000
   4.44553000E+01    2.60801000E-01 
S    1    1.000000
   1.30290000E+01    6.16462000E-01 
S    1    1.000000
   1.82773000E+00    2.21006000E-01 
SP   3    1.000000
   2.09642000E+01    1.14660000E-01   4.02487000E-02 
   4.80331000E+00    9.19999000E-01   2.37594000E-01 
   1.45933000E+00   -3.03068000E-03   8.15854000E-01 
SP   1    1.000000
   4.83456000E-01    1.00000000E+00   1.00000000E+00 
SP   1    1.000000
   1.45585000E-01    1.00000000E+00   1.00000000E+00 
SP   1    1.000000
   4.38000000E-02    1.00000000E+00   1.00000000E+00 
SP   1    1.000000
   1.31927711E-02    1.00000000E+00   1.00000000E+00 
D    1    1.000000
   6.26000000E-01    1.00000000E+00 

8    0
S    1    1.000000
   8.58850000E+03    1.89515000E-03 
S    1    1.000000
   1.29723000E+03    1.43859000E-02 
S    1    1.000000
   2.99296000E+02    7.07320000E-02 
S    1    1.000000
   8.73771000E+01    2.40001000E-01 
S    1    1.000000
   2.56789000E+01    5.94797000E-01 
S    1    1.000000
   3.74004000E+00    2.80802000E-01 
SP   3    1.000000
   4.21175000E+01    1.13889000E-01   3.65114000E-02 
   9.62837000E+00    9.20811000E-01   2.37153000E-01 
   2.85332000E+00   -3.27447000E-03   8.19702000E-01 
SP   1    1.000000
   9.05661000E-01    1.00000000E+00   1.00000000E+00 
SP   1    1.000000
   2.55611000E-01    1.00000000E+00   1.00000000E+00 
SP   1    1.000000
   8.45000000E-02    1.00000000E+00   1.00000000E+00 
SP   1    1.000000
   2.54518072E-02    1.00000000E+00   1.00000000E+00 
D    1    1.000000
   1.29200000E+00    1.00000000E+00 

9    0
S    1    1.000000
   6.29348000E+03    1.96979000E-03 
S    1    1.000000
   9.49044000E+02    1.49613000E-02 
S    1    1.000000
   2.18776000E+02    7.35006000E-02 
S    1    1.000000
   6.36916000E+01    2.48937000E-01 
S    1    1.000000
   1.88282000E+01    6.02460000E-01 
S    1    1.000000
   2.72023000E+00    2.56202000E-01 
SP   3    1.000000
   3.06331000E+01    1.11906000E-01   3.83119000E-02 
   7.02614000E+00    9.21666000E-01   2.37403000E-01 
   2.11205000E+00   -2.56919000E-03   8.17592000E-01 
SP   1    1.000000
   6.84009000E-01    1.00000000E+00   1.00000000E+00 
SP   1    1.000000
   2.00878000E-01    1.00000000E+00   1.00000000E+00 
SP   1    1.000000
   6.39000000E-02    1.00000000E+00   1.00000000E+00 
SP   1    1.000000
   1.92469880E-02    1.00000000E+00   1.00000000E+00 
D    1    1.000000
   9.13000000E-01    1.00000000E+00 

10    0
S    1    1.000000
   6.29348000E+03    1.96979000E-03 
S    1    1.000000
   9.49044000E+02    1.49613000E-02 
S    1    1.000000
   2.18776000E+02    7.35006000E-02 
S    1    1.000000
   6.36916000E+01    2.48937000E-01 
S    1    1.000000
   1.88282000E+01    6.02460000E-01 
S    1    1.000000
   2.72023000E+00    2.56202000E-01 
SP   3    1.000000
   3.06331000E+01    1.11906000E-01   3.83119000E-02 
   7.02614000E+00    9.21666000E-01   2.37403000E-01 
   2.11205000E+00   -2.56919000E-03   8.17592000E-01 
SP   1    1.000000
   6.84009000E-01    1.00000000E+00   1.00000000E+00 
SP   1    1.000000
   2.00878000E-01    1.00000000E+00   1.00000000E+00 
SP   1    1.000000
   6.39000000E-02    1.00000000E+00   1.00000000E+00 
SP   1    1.000000
   1.92469880E-02    1.00000000E+00   1.00000000E+00 
D    1    1.000000
   9.13000000E-01    1.00000000E+00 

11    0
S    1    1.000000
   4.56324000E+03    1.96665000E-03 
S    1    1.000000
   6.82024000E+02    1.52306000E-02 
S    1    1.000000
   1.54973000E+02    7.61269000E-02 
S    1    1.000000
   4.44553000E+01    2.60801000E-01 
S    1    1.000000
   1.30290000E+01    6.16462000E-01 
S    1    1.000000
   1.82773000E+00    2.21006000E-01 
SP   3    1.000000
   2.09642000E+01    1.14660000E-01   4.02487000E-02 
   4.80331000E+00    9.19999000E-01   2.37594000E-01 
   1.45933000E+00   -3.03068000E-03   8.15854000E-01 
SP   1    1.000000
   4.83456000E-01    1.00000000E+00   1.00000000E+00 
SP   1    1.000000
   1.45585000E-01    1.00000000E+00   1.00000000E+00 
SP   1    1.000000
   4.38000000E-02    1.00000000E+00   1.00000000E+00 
SP   1    1.000000
   1.31927711E-02    1.00000000E+00   1.00000000E+00 
D    1    1.000000
   6.26000000E-01    1.00000000E+00 

12    0
S    3    1.000000
   3.38650000E+01    2.54938000E-02 
   5.09479000E+00    1.90373000E-01 
   1.15879000E+00    8.52161000E-01 
S    1    1.000000
   3.25840000E-01    1.00000000E+00 
S    1    1.000000
   1.02741000E-01    1.00000000E+00 
S    1    1.000000
   3.60000000E-02    1.00000000E+00 
P    1    1.000000
   7.50000000E-01    1.00000000E+00 

[MO]
Sym=X
Ene=0.925774
Spin=Alpha
Occup=1
1    1.97977777e-09
2    -5.08464409e-08
3    6.47300377e-08
4    -1.72037242e-06
5    -6.88572081e-06
6    3.48321554e-06
7    1.8207201e-06
8    -7.04336048e-07
9    9.43537585e-16
10    1.98443943e-05
11    -1.79762118e-05
12    6.07866605e-06
13    2.73477451e-15
14    -0.000144811786
15    -2.68451856e-05
16    -0.000149288568
17    -3.50999979e-16
18    -0.00294936121
19    1.12471975e-05
20    -0.00122286356
21    4.92582488e-14
22    -0.000325473628
23    -0.000238529601
24    0.000199207198
25    1.05437868e-14
26    -8.0759865e-06
27    -3.10863405e-16
28    2.65363783e-06
29    2.46729496e-16
30    -5.15500265e-06
31    7.12319653e-06
32    -1.36013217e-05
33    -3.60183814e-05
34    9.23294837e-05
35    3.27791761e-06
36    -8.60654213e-06
37    1.9423243e-16
38    1.39335019e-06
39    -2.05935442e-05
40    -0.000111827342
41    -0.000758955326
42    -1.11855525e-06
43    -3.82748849e-06
44    4.38399393e-16
45    5.86609567e-06
46    -5.24706659e-08
47    -9.57445566e-05
48    0.00012044462
49    8.2969798e-06
50    2.42214605e-07
51    -2.9851647e-16
52    -9.22431837e-09
53    -1.27342078e-07
54    -2.97714128e-07
55    -3.20073273e-06
56    -8.26911906e-06
57    -0.000128639029
58    -1.19263778e-05
59    -3.18554589e-05
60    2.08737076e-05
61    7.71231704e-16
62    0.0004627413
63    -0.000473133352
64    0.000286590117
65    -4.15046639e-15
66    -0.000906811814
67    0.000492225203
68    -0.000320294405
69    2.75731339e-15
70    -0.00216891773
71    0.00280399673
72    -0.00177118042
73    4.81877944e-14
74    0.00147157982
75    0.000121361981
76    0.000244323113
77    6.59011547e-15
78    -0.0002554684
79    -6.21837232e-16
80    -8.32603383e-05
81    -3.12187931e-16
82    0.000129494726
83    0.00104387172
84    0.00794083452
85    0.0389364462
86    0.132511208
87    0.327972709
88    0.155488434
89    0.471317181
90    0.00167649129
91    -0.000963233192
92    -2.231503e-16
93    0.00490449826
94    -0.000792918715
95    0.000454718749
96    -1.52307447e-15
97    -0.000593533041
98    0.000440585967
99    -0.000246075474
100    1.67289514e-15
101    0.00331594056
102    0.000227968451
103    -0.000154900074
104    -8.92863806e-15
105    0.00775703496
106    0.00143880445
107    -0.000702890198
108    3.69972916e-15
109    9.18594962e-05
110    -5.19109507e-16
111    -9.00459154e-05
112    -1.72654639e-16
113    -5.38863862e-05
114    -8.99470433e-10
115    2.14893337e-09
116    -5.60619811e-08
117    7.21300072e-08
118    -1.85488941e-06
119    -7.1977541e-06
120    3.69540214e-06
121    2.2379185e-06
122    5.62332232e-07
123    -4.76127133e-16
124    1.8542018e-05
125    -1.24858283e-05
126    3.35133809e-06
127    3.80164205e-15
128    6.84865829e-05
129    0.000247100737
130    0.000165874681
131    -5.87459329e-15
132    -0.00197267449
133    0.00118615395
134    0.00044194265
135    7.17315377e-14
136    -0.000440575206
137    0.000189212721
138    -0.000273195888
139    4.68284387e-14
140    3.7605927e-06
141    -5.25086884e-16
142    -5.24057895e-07
143    -1.4287896e-16
144    5.77617538e-06
145    1.29273737e-09
146    1.44382316e-08
147    3.77150454e-08
148    2.54578787e-07
149    -4.97306712e-07
150    -3.68829761e-06
151    3.14205055e-06
152    1.76759618e-06
153    -1.32722335e-07
154    7.55544928e-16
155    1.21822519e-05
156    -5.97988739e-06
157    -4.18442716e-07
158    -3.218071e-16
159    -9.78785692e-05
160    5.94139976e-05
161    2.59003043e-05
162    4.91218603e-15
163    -0.000475520364
164    3.96815243e-05
165    7.43322008e-05
166    -5.25795006e-15
167    -0.00250359009
168    0.000400525294
169    8.26080287e-05
170    -1.21988724e-14
171    -1.72055445e-06
172    -4.21379152e-16
173    1.28237664e-06
174    -4.20093704e-16
175    -4.5290898e-07
176    -9.99343823e-10
177    2.93113798e-08
178    -1.18816467e-07
179    6.28904607e-07
180    -7.05846001e-06
181    -2.91391818e-05
182    2.0111755e-05
183    1.72358417e-05
184    -1.13530803e-06
185    1.71945227e-15
186    4.06390931e-05
187    -5.84268926e-05
188    -1.47214163e-06
189    -5.90400078e-15
190    2.2954133e-05
191    8.58119174e-06
192    -1.54338459e-05
193    1.40492577e-14
194    0.00020212884
195    -5.65940034e-05
196    0.000208375689
197    -4.09261639e-14
198    -0.00150702573
199    0.00244528406
200    -6.22347578e-05
201    -4.27995146e-14
202    4.98689888e-06
203    -2.90039426e-16
204    -4.734486e-06
205    -4.84213454e-16
206    3.31557361e-05
207    -1.39228857e-09
208    2.88695885e-08
209    -1.39457375e-07
210    6.31315774e-07
211    -7.62296187e-06
212    -3.10436667e-05
213    2.11339816e-05
214    9.00599186e-06
215    -1.51025661e-05
216    2.05253555e-15
217    4.75766771e-05
218    -2.45705833e-05
219    5.33118921e-05
220    -3.60510607e-15
221    -2.33051647e-05
222    1.22846599e-06
223    -2.71833505e-05
224    1.33942921e-14
225    0.000168226882
226    -8.32975368e-05
227    -3.00839177e-05
228    -3.84895292e-14
229    -0.00190379252
230    0.000377250045
231    -0.000764991676
232    -1.36590053e-14
233    -2.13407022e-05
234    -1.97304849e-16
235    -4.17496292e-06
236    2.63516264e-16
237    -2.43637347e-05
238    3.7232912e-11
239    2.72257713e-10
240    1.52026688e-09
241    1.33998881e-09
242    -6.72918645e-08
243    -1.14025285e-06
244    2.95105502e-07
245    1.29834812e-06
246    -6.40888572e-08
247    1.11465966e-15
248    -5.15050377e-09
249    -1.38803434e-05
250    1.32877207e-06
251    1.99102019e-15
252    0.000242902771
253    -0.000148939131
254    8.29975957e-05
255    7.72574968e-15
256    0.00320715004
257    -0.000756686553
258    0.000436681227
259    -5.0351452e-14
260    -0.000137501117
261    -0.000118827493
262    -0.000283972635
263    -2.67520206e-14
264    6.03377778e-06
265    -1.00534128e-17
266    1.38378381e-06
267    -4.29617721e-16
268    1.94026624e-07
269    6.38764348e-07
270    2.54743082e-05
271    5.72467403e-05
272    8.24292638e-05
273    -3.83016939e-06
274    2.57546852e-06
275    4.50327861e-16
[5D]