[Molden Format]
[Atoms] (Angs)
  C      1    6     -0.00714236     -1.70213747     -0.00000000
  H      2    1     -2.06882847     -1.44022412      0.00000000
  H      3    1     -0.12337987     -2.77567521      0.00000000
  H      4    1      0.04651892      1.98813947     -0.00000000
  C      5    6     -1.21953563      0.40211669      0.00000000
  O      6    8     -2.25921553      1.03043814      0.00000000
  C      7    6      1.28797806      0.34644937     -0.00000000
  O      8    8      2.31273661      1.00537216     -0.00000000
  N      9    7      0.03446295      0.97739857     -0.00000000
  N     10    7     -1.17287765     -0.98229824      0.00000000
  C     11    6      1.20107039     -1.10433419     -0.00000000
  H     12    1      2.11220096     -1.67699125     -0.00000000
[GTO]
1    0
S    1    1.000000
   4.56324000E+03    1.96665000E-03 
S    1    1.000000
   6.82024000E+02    1.52306000E-02 
S    1    1.000000
   1.54973000E+02    7.61269000E-02 
S    1    1.000000
   4.44553000E+01    2.60801000E-01 
S    1    1.000000
   1.30290000E+01    6.16462000E-01 
S    1    1.000000
   1.82773000E+00    2.21006000E-01 
SP   3    1.000000
   2.09642000E+01    1.14660000E-01   4.02487000E-02 
   4.80331000E+00    9.19999000E-01   2.37594000E-01 
   1.45933000E+00   -3.03068000E-03   8.15854000E-01 
SP   1    1.000000
   4.83456000E-01    1.00000000E+00   1.00000000E+00 
SP   1    1.000000
   1.45585000E-01    1.00000000E+00   1.00000000E+00 
SP   1    1.000000
   4.38000000E-02    1.00000000E+00   1.00000000E+00 
SP   1    1.000000
   1.31927711E-02    1.00000000E+00   1.00000000E+00 
D    1    1.000000
   6.26000000E-01    1.00000000E+00 

2    0
S    3    1.000000
   3.38650000E+01    2.54938000E-02 
   5.09479000E+00    1.90373000E-01 
   1.15879000E+00    8.52161000E-01 
S    1    1.000000
   3.25840000E-01    1.00000000E+00 
S    1    1.000000
   1.02741000E-01    1.00000000E+00 
S    1    1.000000
   3.60000000E-02    1.00000000E+00 
P    1    1.000000
   7.50000000E-01    1.00000000E+00 

3    0
S    3    1.000000
   3.38650000E+01    2.54938000E-02 
   5.09479000E+00    1.90373000E-01 
   1.15879000E+00    8.52161000E-01 
S    1    1.000000
   3.25840000E-01    1.00000000E+00 
S    1    1.000000
   1.02741000E-01    1.00000000E+00 
S    1    1.000000
   3.60000000E-02    1.00000000E+00 
P    1    1.000000
   7.50000000E-01    1.00000000E+00 

4    0
S    3    1.000000
   3.38650000E+01    2.54938000E-02 
   5.09479000E+00    1.90373000E-01 
   1.15879000E+00    8.52161000E-01 
S    1    1.000000
   3.25840000E-01    1.00000000E+00 
S    1    1.000000
   1.02741000E-01    1.00000000E+00 
S    1    1.000000
   3.60000000E-02    1.00000000E+00 
P    1    1.000000
   7.50000000E-01    1.00000000E+00 

5    0
S    1    1.000000
   4.56324000E+03    1.96665000E-03 
S    1    1.000000
   6.82024000E+02    1.52306000E-02 
S    1    1.000000
   1.54973000E+02    7.61269000E-02 
S    1    1.000000
   4.44553000E+01    2.60801000E-01 
S    1    1.000000
   1.30290000E+01    6.16462000E-01 
S    1    1.000000
   1.82773000E+00    2.21006000E-01 
SP   3    1.000000
   2.09642000E+01    1.14660000E-01   4.02487000E-02 
   4.80331000E+00    9.19999000E-01   2.37594000E-01 
   1.45933000E+00   -3.03068000E-03   8.15854000E-01 
SP   1    1.000000
   4.83456000E-01    1.00000000E+00   1.00000000E+00 
SP   1    1.000000
   1.45585000E-01    1.00000000E+00   1.00000000E+00 
SP   1    1.000000
   4.38000000E-02    1.00000000E+00   1.00000000E+00 
SP   1    1.000000
   1.31927711E-02    1.00000000E+00   1.00000000E+00 
D    1    1.000000
   6.26000000E-01    1.00000000E+00 

6    0
S    1    1.000000
   8.58850000E+03    1.89515000E-03 
S    1    1.000000
   1.29723000E+03    1.43859000E-02 
S    1    1.000000
   2.99296000E+02    7.07320000E-02 
S    1    1.000000
   8.73771000E+01    2.40001000E-01 
S    1    1.000000
   2.56789000E+01    5.94797000E-01 
S    1    1.000000
   3.74004000E+00    2.80802000E-01 
SP   3    1.000000
   4.21175000E+01    1.13889000E-01   3.65114000E-02 
   9.62837000E+00    9.20811000E-01   2.37153000E-01 
   2.85332000E+00   -3.27447000E-03   8.19702000E-01 
SP   1    1.000000
   9.05661000E-01    1.00000000E+00   1.00000000E+00 
SP   1    1.000000
   2.55611000E-01    1.00000000E+00   1.00000000E+00 
SP   1    1.000000
   8.45000000E-02    1.00000000E+00   1.00000000E+00 
SP   1    1.000000
   2.54518072E-02    1.00000000E+00   1.00000000E+00 
D    1    1.000000
   1.29200000E+00    1.00000000E+00 

7    0
S    1    1.000000
   4.56324000E+03    1.96665000E-03 
S    1    1.000000
   6.82024000E+02    1.52306000E-02 
S    1    1.000000
   1.54973000E+02    7.61269000E-02 
S    1    1.000000
   4.44553000E+01    2.60801000E-01 
S    1    1.000000
   1.30290000E+01    6.16462000E-01 
S    1    1.000000
   1.82773000E+00    2.21006000E-01 
SP   3    1.000000
   2.09642000E+01    1.14660000E-01   4.02487000E-02 
   4.80331000E+00    9.19999000E-01   2.37594000E-01 
   1.45933000E+00   -3.03068000E-03   8.15854000E-01 
SP   1    1.000000
   4.83456000E-01    1.00000000E+00   1.00000000E+00 
SP   1    1.000000
   1.45585000E-01    1.00000000E+00   1.00000000E+00 
SP   1    1.000000
   4.38000000E-02    1.00000000E+00   1.00000000E+00 
SP   1    1.000000
   1.31927711E-02    1.00000000E+00   1.00000000E+00 
D    1    1.000000
   6.26000000E-01    1.00000000E+00 

8    0
S    1    1.000000
   8.58850000E+03    1.89515000E-03 
S    1    1.000000
   1.29723000E+03    1.43859000E-02 
S    1    1.000000
   2.99296000E+02    7.07320000E-02 
S    1    1.000000
   8.73771000E+01    2.40001000E-01 
S    1    1.000000
   2.56789000E+01    5.94797000E-01 
S    1    1.000000
   3.74004000E+00    2.80802000E-01 
SP   3    1.000000
   4.21175000E+01    1.13889000E-01   3.65114000E-02 
   9.62837000E+00    9.20811000E-01   2.37153000E-01 
   2.85332000E+00   -3.27447000E-03   8.19702000E-01 
SP   1    1.000000
   9.05661000E-01    1.00000000E+00   1.00000000E+00 
SP   1    1.000000
   2.55611000E-01    1.00000000E+00   1.00000000E+00 
SP   1    1.000000
   8.45000000E-02    1.00000000E+00   1.00000000E+00 
SP   1    1.000000
   2.54518072E-02    1.00000000E+00   1.00000000E+00 
D    1    1.000000
   1.29200000E+00    1.00000000E+00 

9    0
S    1    1.000000
   6.29348000E+03    1.96979000E-03 
S    1    1.000000
   9.49044000E+02    1.49613000E-02 
S    1    1.000000
   2.18776000E+02    7.35006000E-02 
S    1    1.000000
   6.36916000E+01    2.48937000E-01 
S    1    1.000000
   1.88282000E+01    6.02460000E-01 
S    1    1.000000
   2.72023000E+00    2.56202000E-01 
SP   3    1.000000
   3.06331000E+01    1.11906000E-01   3.83119000E-02 
   7.02614000E+00    9.21666000E-01   2.37403000E-01 
   2.11205000E+00   -2.56919000E-03   8.17592000E-01 
SP   1    1.000000
   6.84009000E-01    1.00000000E+00   1.00000000E+00 
SP   1    1.000000
   2.00878000E-01    1.00000000E+00   1.00000000E+00 
SP   1    1.000000
   6.39000000E-02    1.00000000E+00   1.00000000E+00 
SP   1    1.000000
   1.92469880E-02    1.00000000E+00   1.00000000E+00 
D    1    1.000000
   9.13000000E-01    1.00000000E+00 

10    0
S    1    1.000000
   6.29348000E+03    1.96979000E-03 
S    1    1.000000
   9.49044000E+02    1.49613000E-02 
S    1    1.000000
   2.18776000E+02    7.35006000E-02 
S    1    1.000000
   6.36916000E+01    2.48937000E-01 
S    1    1.000000
   1.88282000E+01    6.02460000E-01 
S    1    1.000000
   2.72023000E+00    2.56202000E-01 
SP   3    1.000000
   3.06331000E+01    1.11906000E-01   3.83119000E-02 
   7.02614000E+00    9.21666000E-01   2.37403000E-01 
   2.11205000E+00   -2.56919000E-03   8.17592000E-01 
SP   1    1.000000
   6.84009000E-01    1.00000000E+00   1.00000000E+00 
SP   1    1.000000
   2.00878000E-01    1.00000000E+00   1.00000000E+00 
SP   1    1.000000
   6.39000000E-02    1.00000000E+00   1.00000000E+00 
SP   1    1.000000
   1.92469880E-02    1.00000000E+00   1.00000000E+00 
D    1    1.000000
   9.13000000E-01    1.00000000E+00 

11    0
S    1    1.000000
   4.56324000E+03    1.96665000E-03 
S    1    1.000000
   6.82024000E+02    1.52306000E-02 
S    1    1.000000
   1.54973000E+02    7.61269000E-02 
S    1    1.000000
   4.44553000E+01    2.60801000E-01 
S    1    1.000000
   1.30290000E+01    6.16462000E-01 
S    1    1.000000
   1.82773000E+00    2.21006000E-01 
SP   3    1.000000
   2.09642000E+01    1.14660000E-01   4.02487000E-02 
   4.80331000E+00    9.19999000E-01   2.37594000E-01 
   1.45933000E+00   -3.03068000E-03   8.15854000E-01 
SP   1    1.000000
   4.83456000E-01    1.00000000E+00   1.00000000E+00 
SP   1    1.000000
   1.45585000E-01    1.00000000E+00   1.00000000E+00 
SP   1    1.000000
   4.38000000E-02    1.00000000E+00   1.00000000E+00 
SP   1    1.000000
   1.31927711E-02    1.00000000E+00   1.00000000E+00 
D    1    1.000000
   6.26000000E-01    1.00000000E+00 

12    0
S    3    1.000000
   3.38650000E+01    2.54938000E-02 
   5.09479000E+00    1.90373000E-01 
   1.15879000E+00    8.52161000E-01 
S    1    1.000000
   3.25840000E-01    1.00000000E+00 
S    1    1.000000
   1.02741000E-01    1.00000000E+00 
S    1    1.000000
   3.60000000E-02    1.00000000E+00 
P    1    1.000000
   7.50000000E-01    1.00000000E+00 

[MO]
Sym=X
Ene=0.006734
Spin=Alpha
Occup=1
1    1.43006515e-08
2    -1.31947513e-07
3    3.58941497e-07
4    -5.30540916e-06
5    -2.06198042e-05
6    1.21100065e-05
7    2.18434508e-07
8    -2.32000143e-06
9    7.35393935e-16
10    5.30911477e-05
11    6.1605412e-06
12    1.39174844e-05
13    6.45854921e-16
14    -0.000679646495
15    -0.000112987943
16    -0.000300111493
17    -3.02572919e-15
18    0.00131222444
19    0.000430594774
20    -0.000449748658
21    5.15202861e-14
22    0.000693980141
23    0.000221912497
24    9.58338884e-05
25    -1.07929241e-13
26    1.73311297e-05
27    -6.77543536e-17
28    2.3672681e-06
29    -3.00118809e-16
30    -1.22168933e-05
31    7.57651645e-07
32    3.0320243e-05
33    1.11159904e-05
34    0.000182633374
35    7.15692459e-07
36    2.58510261e-06
37    4.11749655e-16
38    -3.53033524e-06
39    -2.30185843e-06
40    -0.000179715758
41    -0.000345546303
42    6.82479537e-06
43    -3.11256611e-06
44    7.90275008e-16
45    3.72059149e-06
46    8.62897444e-05
47    2.1738517e-05
48    0.000165691321
49    -4.67575367e-06
50    -1.5826491e-05
51    -1.4050976e-15
52    -4.74875263e-10
53    -1.63420679e-09
54    -2.34861954e-08
55    -2.19517835e-08
56    -5.22994551e-07
57    -1.91706326e-06
58    6.19629784e-07
59    3.22928618e-06
60    7.53849109e-07
61    4.16264908e-19
62    1.06522129e-05
63    -1.88766313e-05
64    -2.05281631e-06
65    -4.18445302e-15
66    -0.00033560306
67    -0.000360224963
68    6.95690691e-05
69    2.29465041e-15
70    -0.00127367116
71    -0.00109923169
72    -4.54723099e-05
73    1.88352096e-14
74    -0.00131716768
75    -0.000307573843
76    -0.00043681802
77    5.74086821e-14
78    -4.75365513e-06
79    -3.94929636e-16
80    5.26223103e-06
81    -2.35477676e-16
82    5.35200613e-07
83    1.65472862e-07
84    1.25810659e-06
85    6.17373075e-06
86    2.0992027e-05
87    5.21059665e-05
88    2.50315202e-05
89    7.44229967e-05
90    -8.77878821e-07
91    -8.68335591e-07
92    -1.01419733e-15
93    2.30054391e-06
94    2.45769688e-06
95    1.81434997e-06
96    8.19024676e-16
97    -5.12265053e-05
98    -2.72105003e-05
99    1.91598638e-05
100    -5.8097743e-15
101    -0.000488266159
102    -8.21616151e-05
103    9.6724232e-05
104    6.52632509e-15
105    -0.00220617587
106    -0.000319609682
107    7.62538946e-05
108    -1.97616419e-14
109    1.74406631e-06
110    7.97901257e-17
111    1.20047116e-06
112    1.18378046e-16
113    6.81657784e-07
114    -1.07288795e-08
115    -1.28621768e-07
116    -3.67391436e-07
117    -3.32913959e-06
118    -1.50840418e-05
119    -0.000188773349
120    1.24800954e-05
121    1.56974061e-05
122    1.40738379e-05
123    -2.05827096e-15
124    0.000622714715
125    0.000640313415
126    0.000429729764
127    1.15235068e-16
128    -0.000555189299
129    0.000224792456
130    0.000243115048
131    -6.91570494e-15
132    -0.00191979653
133    -0.00295862728
134    -0.00104438489
135    7.1298715e-14
136    8.74821807e-05
137    -0.00048482822
138    0.00087707187
139    -6.5429077e-14
140    0.000366540344
141    -4.09186717e-16
142    -0.000113378484
143    4.03936897e-16
144    0.000165657277
145    0.0010432174
146    0.00793579057
147    0.0389111516
148    0.132419069
149    0.32773099
150    0.156373331
151    0.47064796
152    -0.00168339352
153    -0.00106120542
154    -9.38744669e-17
155    0.00575830417
156    0.000805365864
157    0.000503636388
158    -2.60829331e-15
159    -0.00152354438
160    -7.84664355e-05
161    -4.49018291e-05
162    3.60329308e-15
163    0.00291486387
164    -0.000217333183
165    -0.000190738478
166    -1.53441041e-14
167    0.00636524527
168    -0.00116854355
169    -0.000422881653
170    -2.53456467e-15
171    -0.000426844063
172    2.39849402e-16
173    -0.00011824217
174    2.36268266e-16
175    -0.000213806537
176    -1.25699023e-09
177    2.59896466e-08
178    -1.2566714e-07
179    5.70323092e-07
180    -6.82459487e-06
181    -2.70354582e-05
182    1.89185222e-05
183    -2.49925078e-05
184    1.61329849e-06
185    -1.04505614e-15
186    1.20850499e-05
187    9.29601462e-05
188    -1.53057229e-05
189    -3.47224966e-15
190    0.000315472264
191    -0.000159415693
192    -0.000267425582
193    2.96541047e-15
194    0.000210286776
195    -0.00045026402
196    -4.18760401e-05
197    -3.07340697e-14
198    -0.0020540917
199    -0.00282048016
200    -4.05606176e-05
201    -2.42983964e-14
202    -1.76135247e-05
203    6.05721744e-16
204    -1.0957331e-05
205    8.50594059e-17
206    4.87248995e-05
207    -1.97831923e-10
208    4.44033688e-09
209    -2.11200593e-08
210    9.65137841e-08
211    -1.11036251e-06
212    -4.39799809e-06
213    2.83255509e-06
214    6.36947517e-08
215    6.42204646e-07
216    1.0224811e-15
217    3.66496947e-06
218    2.15823571e-06
219    -2.71553847e-06
220    -2.33010693e-15
221    0.000149563424
222    0.00013157814
223    4.18123279e-05
224    6.91400668e-15
225    0.000744260345
226    0.00029973663
227    4.49056193e-05
228    -2.9325335e-14
229    -0.000145256552
230    0.000294346434
231    -0.000144842979
232    1.41313841e-14
233    -5.0002871e-06
234    -2.57040608e-16
235    1.19021897e-06
236    2.5342875e-16
237    -2.18479122e-06
238    6.56718072e-10
239    2.31090212e-08
240    -1.24317157e-08
241    4.62177863e-07
242    -3.30473763e-06
243    -1.74224077e-05
244    1.15456108e-05
245    -1.00617021e-05
246    -2.32729558e-05
247    1.25673592e-15
248    3.56720919e-06
249    2.17497115e-05
250    0.000130219197
251    -3.66093304e-15
252    0.000631270896
253    -0.000479517303
254    7.7243403e-05
255    1.12871035e-14
256    -0.00150584576
257    0.00145008749
258    0.000331169755
259    -7.38777359e-14
260    0.00080172312
261    0.000327721773
262    0.00012405951
263    1.30124288e-13
264    5.98807195e-05
265    -5.86807193e-16
266    -5.85349598e-06
267    -4.72199153e-16
268    -6.18352935e-05
269    3.67805216e-06
270    0.00013802942
271    3.50931434e-05
272    -0.000920676208
273    -2.89667596e-05
274    1.6518118e-05
275    1.35657372e-16
[5D]