[Molden Format]
[Atoms] (Angs)
  C      1    6     -0.00714236     -1.70213747     -0.00000000
  H      2    1     -2.06882847     -1.44022412      0.00000000
  H      3    1     -0.12337987     -2.77567521      0.00000000
  H      4    1      0.04651892      1.98813947     -0.00000000
  C      5    6     -1.21953563      0.40211669      0.00000000
  O      6    8     -2.25921553      1.03043814      0.00000000
  C      7    6      1.28797806      0.34644937     -0.00000000
  O      8    8      2.31273661      1.00537216     -0.00000000
  N      9    7      0.03446295      0.97739857     -0.00000000
  N     10    7     -1.17287765     -0.98229824      0.00000000
  C     11    6      1.20107039     -1.10433419     -0.00000000
  H     12    1      2.11220096     -1.67699125     -0.00000000
[GTO]
1    0
S    1    1.000000
   4.56324000E+03    1.96665000E-03 
S    1    1.000000
   6.82024000E+02    1.52306000E-02 
S    1    1.000000
   1.54973000E+02    7.61269000E-02 
S    1    1.000000
   4.44553000E+01    2.60801000E-01 
S    1    1.000000
   1.30290000E+01    6.16462000E-01 
S    1    1.000000
   1.82773000E+00    2.21006000E-01 
SP   3    1.000000
   2.09642000E+01    1.14660000E-01   4.02487000E-02 
   4.80331000E+00    9.19999000E-01   2.37594000E-01 
   1.45933000E+00   -3.03068000E-03   8.15854000E-01 
SP   1    1.000000
   4.83456000E-01    1.00000000E+00   1.00000000E+00 
SP   1    1.000000
   1.45585000E-01    1.00000000E+00   1.00000000E+00 
SP   1    1.000000
   4.38000000E-02    1.00000000E+00   1.00000000E+00 
SP   1    1.000000
   1.31927711E-02    1.00000000E+00   1.00000000E+00 
D    1    1.000000
   6.26000000E-01    1.00000000E+00 

2    0
S    3    1.000000
   3.38650000E+01    2.54938000E-02 
   5.09479000E+00    1.90373000E-01 
   1.15879000E+00    8.52161000E-01 
S    1    1.000000
   3.25840000E-01    1.00000000E+00 
S    1    1.000000
   1.02741000E-01    1.00000000E+00 
S    1    1.000000
   3.60000000E-02    1.00000000E+00 
P    1    1.000000
   7.50000000E-01    1.00000000E+00 

3    0
S    3    1.000000
   3.38650000E+01    2.54938000E-02 
   5.09479000E+00    1.90373000E-01 
   1.15879000E+00    8.52161000E-01 
S    1    1.000000
   3.25840000E-01    1.00000000E+00 
S    1    1.000000
   1.02741000E-01    1.00000000E+00 
S    1    1.000000
   3.60000000E-02    1.00000000E+00 
P    1    1.000000
   7.50000000E-01    1.00000000E+00 

4    0
S    3    1.000000
   3.38650000E+01    2.54938000E-02 
   5.09479000E+00    1.90373000E-01 
   1.15879000E+00    8.52161000E-01 
S    1    1.000000
   3.25840000E-01    1.00000000E+00 
S    1    1.000000
   1.02741000E-01    1.00000000E+00 
S    1    1.000000
   3.60000000E-02    1.00000000E+00 
P    1    1.000000
   7.50000000E-01    1.00000000E+00 

5    0
S    1    1.000000
   4.56324000E+03    1.96665000E-03 
S    1    1.000000
   6.82024000E+02    1.52306000E-02 
S    1    1.000000
   1.54973000E+02    7.61269000E-02 
S    1    1.000000
   4.44553000E+01    2.60801000E-01 
S    1    1.000000
   1.30290000E+01    6.16462000E-01 
S    1    1.000000
   1.82773000E+00    2.21006000E-01 
SP   3    1.000000
   2.09642000E+01    1.14660000E-01   4.02487000E-02 
   4.80331000E+00    9.19999000E-01   2.37594000E-01 
   1.45933000E+00   -3.03068000E-03   8.15854000E-01 
SP   1    1.000000
   4.83456000E-01    1.00000000E+00   1.00000000E+00 
SP   1    1.000000
   1.45585000E-01    1.00000000E+00   1.00000000E+00 
SP   1    1.000000
   4.38000000E-02    1.00000000E+00   1.00000000E+00 
SP   1    1.000000
   1.31927711E-02    1.00000000E+00   1.00000000E+00 
D    1    1.000000
   6.26000000E-01    1.00000000E+00 

6    0
S    1    1.000000
   8.58850000E+03    1.89515000E-03 
S    1    1.000000
   1.29723000E+03    1.43859000E-02 
S    1    1.000000
   2.99296000E+02    7.07320000E-02 
S    1    1.000000
   8.73771000E+01    2.40001000E-01 
S    1    1.000000
   2.56789000E+01    5.94797000E-01 
S    1    1.000000
   3.74004000E+00    2.80802000E-01 
SP   3    1.000000
   4.21175000E+01    1.13889000E-01   3.65114000E-02 
   9.62837000E+00    9.20811000E-01   2.37153000E-01 
   2.85332000E+00   -3.27447000E-03   8.19702000E-01 
SP   1    1.000000
   9.05661000E-01    1.00000000E+00   1.00000000E+00 
SP   1    1.000000
   2.55611000E-01    1.00000000E+00   1.00000000E+00 
SP   1    1.000000
   8.45000000E-02    1.00000000E+00   1.00000000E+00 
SP   1    1.000000
   2.54518072E-02    1.00000000E+00   1.00000000E+00 
D    1    1.000000
   1.29200000E+00    1.00000000E+00 

7    0
S    1    1.000000
   4.56324000E+03    1.96665000E-03 
S    1    1.000000
   6.82024000E+02    1.52306000E-02 
S    1    1.000000
   1.54973000E+02    7.61269000E-02 
S    1    1.000000
   4.44553000E+01    2.60801000E-01 
S    1    1.000000
   1.30290000E+01    6.16462000E-01 
S    1    1.000000
   1.82773000E+00    2.21006000E-01 
SP   3    1.000000
   2.09642000E+01    1.14660000E-01   4.02487000E-02 
   4.80331000E+00    9.19999000E-01   2.37594000E-01 
   1.45933000E+00   -3.03068000E-03   8.15854000E-01 
SP   1    1.000000
   4.83456000E-01    1.00000000E+00   1.00000000E+00 
SP   1    1.000000
   1.45585000E-01    1.00000000E+00   1.00000000E+00 
SP   1    1.000000
   4.38000000E-02    1.00000000E+00   1.00000000E+00 
SP   1    1.000000
   1.31927711E-02    1.00000000E+00   1.00000000E+00 
D    1    1.000000
   6.26000000E-01    1.00000000E+00 

8    0
S    1    1.000000
   8.58850000E+03    1.89515000E-03 
S    1    1.000000
   1.29723000E+03    1.43859000E-02 
S    1    1.000000
   2.99296000E+02    7.07320000E-02 
S    1    1.000000
   8.73771000E+01    2.40001000E-01 
S    1    1.000000
   2.56789000E+01    5.94797000E-01 
S    1    1.000000
   3.74004000E+00    2.80802000E-01 
SP   3    1.000000
   4.21175000E+01    1.13889000E-01   3.65114000E-02 
   9.62837000E+00    9.20811000E-01   2.37153000E-01 
   2.85332000E+00   -3.27447000E-03   8.19702000E-01 
SP   1    1.000000
   9.05661000E-01    1.00000000E+00   1.00000000E+00 
SP   1    1.000000
   2.55611000E-01    1.00000000E+00   1.00000000E+00 
SP   1    1.000000
   8.45000000E-02    1.00000000E+00   1.00000000E+00 
SP   1    1.000000
   2.54518072E-02    1.00000000E+00   1.00000000E+00 
D    1    1.000000
   1.29200000E+00    1.00000000E+00 

9    0
S    1    1.000000
   6.29348000E+03    1.96979000E-03 
S    1    1.000000
   9.49044000E+02    1.49613000E-02 
S    1    1.000000
   2.18776000E+02    7.35006000E-02 
S    1    1.000000
   6.36916000E+01    2.48937000E-01 
S    1    1.000000
   1.88282000E+01    6.02460000E-01 
S    1    1.000000
   2.72023000E+00    2.56202000E-01 
SP   3    1.000000
   3.06331000E+01    1.11906000E-01   3.83119000E-02 
   7.02614000E+00    9.21666000E-01   2.37403000E-01 
   2.11205000E+00   -2.56919000E-03   8.17592000E-01 
SP   1    1.000000
   6.84009000E-01    1.00000000E+00   1.00000000E+00 
SP   1    1.000000
   2.00878000E-01    1.00000000E+00   1.00000000E+00 
SP   1    1.000000
   6.39000000E-02    1.00000000E+00   1.00000000E+00 
SP   1    1.000000
   1.92469880E-02    1.00000000E+00   1.00000000E+00 
D    1    1.000000
   9.13000000E-01    1.00000000E+00 

10    0
S    1    1.000000
   6.29348000E+03    1.96979000E-03 
S    1    1.000000
   9.49044000E+02    1.49613000E-02 
S    1    1.000000
   2.18776000E+02    7.35006000E-02 
S    1    1.000000
   6.36916000E+01    2.48937000E-01 
S    1    1.000000
   1.88282000E+01    6.02460000E-01 
S    1    1.000000
   2.72023000E+00    2.56202000E-01 
SP   3    1.000000
   3.06331000E+01    1.11906000E-01   3.83119000E-02 
   7.02614000E+00    9.21666000E-01   2.37403000E-01 
   2.11205000E+00   -2.56919000E-03   8.17592000E-01 
SP   1    1.000000
   6.84009000E-01    1.00000000E+00   1.00000000E+00 
SP   1    1.000000
   2.00878000E-01    1.00000000E+00   1.00000000E+00 
SP   1    1.000000
   6.39000000E-02    1.00000000E+00   1.00000000E+00 
SP   1    1.000000
   1.92469880E-02    1.00000000E+00   1.00000000E+00 
D    1    1.000000
   9.13000000E-01    1.00000000E+00 

11    0
S    1    1.000000
   4.56324000E+03    1.96665000E-03 
S    1    1.000000
   6.82024000E+02    1.52306000E-02 
S    1    1.000000
   1.54973000E+02    7.61269000E-02 
S    1    1.000000
   4.44553000E+01    2.60801000E-01 
S    1    1.000000
   1.30290000E+01    6.16462000E-01 
S    1    1.000000
   1.82773000E+00    2.21006000E-01 
SP   3    1.000000
   2.09642000E+01    1.14660000E-01   4.02487000E-02 
   4.80331000E+00    9.19999000E-01   2.37594000E-01 
   1.45933000E+00   -3.03068000E-03   8.15854000E-01 
SP   1    1.000000
   4.83456000E-01    1.00000000E+00   1.00000000E+00 
SP   1    1.000000
   1.45585000E-01    1.00000000E+00   1.00000000E+00 
SP   1    1.000000
   4.38000000E-02    1.00000000E+00   1.00000000E+00 
SP   1    1.000000
   1.31927711E-02    1.00000000E+00   1.00000000E+00 
D    1    1.000000
   6.26000000E-01    1.00000000E+00 

12    0
S    3    1.000000
   3.38650000E+01    2.54938000E-02 
   5.09479000E+00    1.90373000E-01 
   1.15879000E+00    8.52161000E-01 
S    1    1.000000
   3.25840000E-01    1.00000000E+00 
S    1    1.000000
   1.02741000E-01    1.00000000E+00 
S    1    1.000000
   3.60000000E-02    1.00000000E+00 
P    1    1.000000
   7.50000000E-01    1.00000000E+00 

[MO]
Sym=X
Ene=0.135104
Spin=Alpha
Occup=1
1    1.43003387e-08
2    -1.31939476e-07
3    3.58931243e-07
4    -5.30513724e-06
5    -2.06187158e-05
6    1.2109456e-05
7    2.18146646e-07
8    -2.31989008e-06
9    4.11605059e-17
10    5.30880109e-05
11    6.16338342e-06
12    1.39165234e-05
13    -5.19259972e-16
14    -0.000679623607
15    -0.0001129837
16    -0.000300087893
17    -4.18646545e-15
18    0.00131269078
19    0.000430593001
20    -0.00044955532
21    5.06164025e-14
22    0.00069403161
23    0.000221950214
24    9.58023935e-05
25    -1.09131242e-13
26    1.73324068e-05
27    5.78350799e-17
28    2.36684855e-06
29    -3.6040137e-16
30    -1.22160785e-05
31    7.56525402e-07
32    3.03223938e-05
33    1.11216854e-05
34    0.000182618778
35    7.15174205e-07
36    2.58646339e-06
37    2.64618349e-16
38    -3.53055564e-06
39    -2.29860245e-06
40    -0.000179698079
41    -0.00034542631
42    6.82497233e-06
43    -3.11196104e-06
44    2.58742045e-16
45    3.71966409e-06
46    8.62897537e-05
47    2.17536552e-05
48    0.00016567228
49    -4.67706553e-06
50    -1.58265295e-05
51    -4.70707462e-16
52    -4.73416735e-10
53    -1.61407357e-09
54    -2.3439127e-08
55    -2.14457366e-08
56    -5.21687173e-07
57    -1.8967245e-06
58    6.21515464e-07
59    3.23432282e-06
60    7.50548829e-07
61    1.14726261e-15
62    1.05790501e-05
63    -1.88018256e-05
64    -2.09812832e-06
65    -2.06034288e-15
66    -0.00033545969
67    -0.000360302792
68    6.96197108e-05
69    4.69653513e-15
70    -0.00127332826
71    -0.00109967504
72    -4.51922734e-05
73    1.97433158e-14
74    -0.00131740037
75    -0.000307593036
76    -0.000436856655
77    5.66234793e-14
78    -4.7132637e-06
79    2.53065867e-16
80    5.27539517e-06
81    -1.36311305e-16
82    5.14726549e-07
83    4.28945804e-10
84    2.60133865e-09
85    1.7587755e-08
86    4.10151512e-08
87    2.51031274e-07
88    4.47637317e-07
89    -9.57702051e-08
90    -1.14294465e-06
91    -7.16041246e-07
92    -2.9775657e-16
93    1.52510611e-06
94    2.58306331e-06
95    1.74245557e-06
96    2.12853701e-15
97    -5.1132664e-05
98    -2.72801606e-05
99    1.91987704e-05
100    -3.83286185e-15
101    -0.000488790441
102    -8.21976597e-05
103    9.67487241e-05
104    8.32257721e-15
105    -0.00220740234
106    -0.000319837172
107    7.63650278e-05
108    -1.95400241e-14
109    1.72954266e-06
110    -2.28115691e-17
111    1.2147081e-06
112    3.8661879e-16
113    6.90177638e-07
114    -1.07287372e-08
115    -1.2862211e-07
116    -3.67382578e-07
117    -3.32915105e-06
118    -1.50837487e-05
119    -0.000188772213
120    1.24795113e-05
121    1.56970525e-05
122    1.40737492e-05
123    -1.50344646e-15
124    0.000622711791
125    0.000640315398
126    0.000429729239
127    1.11902977e-15
128    -0.000555200134
129    0.00022475339
130    0.000243088825
131    -5.86115911e-15
132    -0.00191948465
133    -0.00295881486
134    -0.00104445478
135    7.1370702e-14
136    8.75518405e-05
137    -0.000484858143
138    0.000877115075
139    -6.64559354e-14
140    0.000366539754
141    -2.87773304e-17
142    -0.000113378403
143    -7.57904474e-17
144    0.000165656366
145    0.00104321741
146    0.00793579067
147    0.0389111521
148    0.132419071
149    0.327730994
150    0.156373333
151    0.470647966
152    -0.00168339382
153    -0.00106120541
154    -8.80675057e-18
155    0.00575830232
156    0.00080536682
157    0.000503636461
158    -2.38153147e-15
159    -0.00152352893
160    -7.84758303e-05
161    -4.49059248e-05
162    4.0877406e-15
163    0.00291493909
164    -0.00021733946
165    -0.000190750233
166    -1.49634017e-14
167    0.00636564119
168    -0.00116860689
169    -0.000422894719
170    -3.05969088e-15
171    -0.000426843796
172    2.35235662e-16
173    -0.000118242374
174    1.37387394e-16
175    -0.000213806468
176    -1.25683231e-09
177    2.59850143e-08
178    -1.25648353e-07
179    5.70223679e-07
180    -6.82347895e-06
181    -2.70308515e-05
182    1.89153427e-05
183    -2.49952333e-05
184    1.61347801e-06
185    1.94889361e-16
186    1.20786247e-05
187    9.29693852e-05
188    -1.53054903e-05
189    -1.3111308e-15
190    0.000315468639
191    -0.000159417051
192    -0.000267423145
193    5.66165054e-15
194    0.00021025482
195    -0.000450255078
196    -4.19089863e-05
197    -2.92018995e-14
198    -0.00205385345
199    -0.00282086681
200    -4.05507782e-05
201    -2.47335225e-14
202    -1.76143134e-05
203    5.88396004e-16
204    -1.09565826e-05
205    -7.55049205e-17
206    4.87196579e-05
207    -1.97611746e-10
208    4.43577274e-09
209    -2.10980079e-08
210    9.64139724e-08
211    -1.10915728e-06
212    -4.39308997e-06
213    2.82921379e-06
214    6.22708357e-08
215    6.44592448e-07
216    8.29300949e-16
217    3.65744729e-06
218    2.16212053e-06
219    -2.72396746e-06
220    -2.5554625e-15
221    0.000149567111
222    0.000131577948
223    4.18166264e-05
224    6.97534612e-15
225    0.000744233756
226    0.000299749804
227    4.49103764e-05
228    -2.91821695e-14
229    -0.00014495555
230    0.000294286791
231    -0.00014472203
232    1.33532254e-14
233    -4.99691303e-06
234    1.44613002e-16
235    1.19087906e-06
236    1.29315281e-16
237    -2.18093917e-06
238    6.56712242e-10
239    2.31089784e-08
240    -1.24319555e-08
241    4.62177647e-07
242    -3.30472702e-06
243    -1.74222277e-05
244    1.15455643e-05
245    -1.00619075e-05
246    -2.3272946e-05
247    9.58652294e-16
248    3.56721e-06
249    2.17519064e-05
250    0.000130218988
251    -4.20615199e-15
252    0.000631232499
253    -0.00047949376
254    7.72302814e-05
255    1.06464258e-14
256    -0.00150635286
257    0.00145020714
258    0.000331100716
259    -7.46329262e-14
260    0.00080174487
261    0.000327740564
262    0.000124104409
263    1.28918166e-13
264    5.98797663e-05
265    -1.38205379e-16
266    -5.85371483e-06
267    -3.02982902e-16
268    -6.18353249e-05
269    3.6779512e-06
270    0.000138025394
271    3.50840926e-05
272    -0.000920689253
273    -2.89661544e-05
274    1.6517711e-05
275    -1.40821023e-16
[5D]