[Molden Format]
[Atoms] (Angs)
  C      1    6     -0.00714236     -1.70213747     -0.00000000
  H      2    1     -2.06882847     -1.44022412      0.00000000
  H      3    1     -0.12337987     -2.77567521      0.00000000
  H      4    1      0.04651892      1.98813947     -0.00000000
  C      5    6     -1.21953563      0.40211669      0.00000000
  O      6    8     -2.25921553      1.03043814      0.00000000
  C      7    6      1.28797806      0.34644937     -0.00000000
  O      8    8      2.31273661      1.00537216     -0.00000000
  N      9    7      0.03446295      0.97739857     -0.00000000
  N     10    7     -1.17287765     -0.98229824      0.00000000
  C     11    6      1.20107039     -1.10433419     -0.00000000
  H     12    1      2.11220096     -1.67699125     -0.00000000
[GTO]
1    0
S    1    1.000000
   4.56324000E+03    1.96665000E-03 
S    1    1.000000
   6.82024000E+02    1.52306000E-02 
S    1    1.000000
   1.54973000E+02    7.61269000E-02 
S    1    1.000000
   4.44553000E+01    2.60801000E-01 
S    1    1.000000
   1.30290000E+01    6.16462000E-01 
S    1    1.000000
   1.82773000E+00    2.21006000E-01 
SP   3    1.000000
   2.09642000E+01    1.14660000E-01   4.02487000E-02 
   4.80331000E+00    9.19999000E-01   2.37594000E-01 
   1.45933000E+00   -3.03068000E-03   8.15854000E-01 
SP   1    1.000000
   4.83456000E-01    1.00000000E+00   1.00000000E+00 
SP   1    1.000000
   1.45585000E-01    1.00000000E+00   1.00000000E+00 
SP   1    1.000000
   4.38000000E-02    1.00000000E+00   1.00000000E+00 
SP   1    1.000000
   1.31927711E-02    1.00000000E+00   1.00000000E+00 
D    1    1.000000
   6.26000000E-01    1.00000000E+00 

2    0
S    3    1.000000
   3.38650000E+01    2.54938000E-02 
   5.09479000E+00    1.90373000E-01 
   1.15879000E+00    8.52161000E-01 
S    1    1.000000
   3.25840000E-01    1.00000000E+00 
S    1    1.000000
   1.02741000E-01    1.00000000E+00 
S    1    1.000000
   3.60000000E-02    1.00000000E+00 
P    1    1.000000
   7.50000000E-01    1.00000000E+00 

3    0
S    3    1.000000
   3.38650000E+01    2.54938000E-02 
   5.09479000E+00    1.90373000E-01 
   1.15879000E+00    8.52161000E-01 
S    1    1.000000
   3.25840000E-01    1.00000000E+00 
S    1    1.000000
   1.02741000E-01    1.00000000E+00 
S    1    1.000000
   3.60000000E-02    1.00000000E+00 
P    1    1.000000
   7.50000000E-01    1.00000000E+00 

4    0
S    3    1.000000
   3.38650000E+01    2.54938000E-02 
   5.09479000E+00    1.90373000E-01 
   1.15879000E+00    8.52161000E-01 
S    1    1.000000
   3.25840000E-01    1.00000000E+00 
S    1    1.000000
   1.02741000E-01    1.00000000E+00 
S    1    1.000000
   3.60000000E-02    1.00000000E+00 
P    1    1.000000
   7.50000000E-01    1.00000000E+00 

5    0
S    1    1.000000
   4.56324000E+03    1.96665000E-03 
S    1    1.000000
   6.82024000E+02    1.52306000E-02 
S    1    1.000000
   1.54973000E+02    7.61269000E-02 
S    1    1.000000
   4.44553000E+01    2.60801000E-01 
S    1    1.000000
   1.30290000E+01    6.16462000E-01 
S    1    1.000000
   1.82773000E+00    2.21006000E-01 
SP   3    1.000000
   2.09642000E+01    1.14660000E-01   4.02487000E-02 
   4.80331000E+00    9.19999000E-01   2.37594000E-01 
   1.45933000E+00   -3.03068000E-03   8.15854000E-01 
SP   1    1.000000
   4.83456000E-01    1.00000000E+00   1.00000000E+00 
SP   1    1.000000
   1.45585000E-01    1.00000000E+00   1.00000000E+00 
SP   1    1.000000
   4.38000000E-02    1.00000000E+00   1.00000000E+00 
SP   1    1.000000
   1.31927711E-02    1.00000000E+00   1.00000000E+00 
D    1    1.000000
   6.26000000E-01    1.00000000E+00 

6    0
S    1    1.000000
   8.58850000E+03    1.89515000E-03 
S    1    1.000000
   1.29723000E+03    1.43859000E-02 
S    1    1.000000
   2.99296000E+02    7.07320000E-02 
S    1    1.000000
   8.73771000E+01    2.40001000E-01 
S    1    1.000000
   2.56789000E+01    5.94797000E-01 
S    1    1.000000
   3.74004000E+00    2.80802000E-01 
SP   3    1.000000
   4.21175000E+01    1.13889000E-01   3.65114000E-02 
   9.62837000E+00    9.20811000E-01   2.37153000E-01 
   2.85332000E+00   -3.27447000E-03   8.19702000E-01 
SP   1    1.000000
   9.05661000E-01    1.00000000E+00   1.00000000E+00 
SP   1    1.000000
   2.55611000E-01    1.00000000E+00   1.00000000E+00 
SP   1    1.000000
   8.45000000E-02    1.00000000E+00   1.00000000E+00 
SP   1    1.000000
   2.54518072E-02    1.00000000E+00   1.00000000E+00 
D    1    1.000000
   1.29200000E+00    1.00000000E+00 

7    0
S    1    1.000000
   4.56324000E+03    1.96665000E-03 
S    1    1.000000
   6.82024000E+02    1.52306000E-02 
S    1    1.000000
   1.54973000E+02    7.61269000E-02 
S    1    1.000000
   4.44553000E+01    2.60801000E-01 
S    1    1.000000
   1.30290000E+01    6.16462000E-01 
S    1    1.000000
   1.82773000E+00    2.21006000E-01 
SP   3    1.000000
   2.09642000E+01    1.14660000E-01   4.02487000E-02 
   4.80331000E+00    9.19999000E-01   2.37594000E-01 
   1.45933000E+00   -3.03068000E-03   8.15854000E-01 
SP   1    1.000000
   4.83456000E-01    1.00000000E+00   1.00000000E+00 
SP   1    1.000000
   1.45585000E-01    1.00000000E+00   1.00000000E+00 
SP   1    1.000000
   4.38000000E-02    1.00000000E+00   1.00000000E+00 
SP   1    1.000000
   1.31927711E-02    1.00000000E+00   1.00000000E+00 
D    1    1.000000
   6.26000000E-01    1.00000000E+00 

8    0
S    1    1.000000
   8.58850000E+03    1.89515000E-03 
S    1    1.000000
   1.29723000E+03    1.43859000E-02 
S    1    1.000000
   2.99296000E+02    7.07320000E-02 
S    1    1.000000
   8.73771000E+01    2.40001000E-01 
S    1    1.000000
   2.56789000E+01    5.94797000E-01 
S    1    1.000000
   3.74004000E+00    2.80802000E-01 
SP   3    1.000000
   4.21175000E+01    1.13889000E-01   3.65114000E-02 
   9.62837000E+00    9.20811000E-01   2.37153000E-01 
   2.85332000E+00   -3.27447000E-03   8.19702000E-01 
SP   1    1.000000
   9.05661000E-01    1.00000000E+00   1.00000000E+00 
SP   1    1.000000
   2.55611000E-01    1.00000000E+00   1.00000000E+00 
SP   1    1.000000
   8.45000000E-02    1.00000000E+00   1.00000000E+00 
SP   1    1.000000
   2.54518072E-02    1.00000000E+00   1.00000000E+00 
D    1    1.000000
   1.29200000E+00    1.00000000E+00 

9    0
S    1    1.000000
   6.29348000E+03    1.96979000E-03 
S    1    1.000000
   9.49044000E+02    1.49613000E-02 
S    1    1.000000
   2.18776000E+02    7.35006000E-02 
S    1    1.000000
   6.36916000E+01    2.48937000E-01 
S    1    1.000000
   1.88282000E+01    6.02460000E-01 
S    1    1.000000
   2.72023000E+00    2.56202000E-01 
SP   3    1.000000
   3.06331000E+01    1.11906000E-01   3.83119000E-02 
   7.02614000E+00    9.21666000E-01   2.37403000E-01 
   2.11205000E+00   -2.56919000E-03   8.17592000E-01 
SP   1    1.000000
   6.84009000E-01    1.00000000E+00   1.00000000E+00 
SP   1    1.000000
   2.00878000E-01    1.00000000E+00   1.00000000E+00 
SP   1    1.000000
   6.39000000E-02    1.00000000E+00   1.00000000E+00 
SP   1    1.000000
   1.92469880E-02    1.00000000E+00   1.00000000E+00 
D    1    1.000000
   9.13000000E-01    1.00000000E+00 

10    0
S    1    1.000000
   6.29348000E+03    1.96979000E-03 
S    1    1.000000
   9.49044000E+02    1.49613000E-02 
S    1    1.000000
   2.18776000E+02    7.35006000E-02 
S    1    1.000000
   6.36916000E+01    2.48937000E-01 
S    1    1.000000
   1.88282000E+01    6.02460000E-01 
S    1    1.000000
   2.72023000E+00    2.56202000E-01 
SP   3    1.000000
   3.06331000E+01    1.11906000E-01   3.83119000E-02 
   7.02614000E+00    9.21666000E-01   2.37403000E-01 
   2.11205000E+00   -2.56919000E-03   8.17592000E-01 
SP   1    1.000000
   6.84009000E-01    1.00000000E+00   1.00000000E+00 
SP   1    1.000000
   2.00878000E-01    1.00000000E+00   1.00000000E+00 
SP   1    1.000000
   6.39000000E-02    1.00000000E+00   1.00000000E+00 
SP   1    1.000000
   1.92469880E-02    1.00000000E+00   1.00000000E+00 
D    1    1.000000
   9.13000000E-01    1.00000000E+00 

11    0
S    1    1.000000
   4.56324000E+03    1.96665000E-03 
S    1    1.000000
   6.82024000E+02    1.52306000E-02 
S    1    1.000000
   1.54973000E+02    7.61269000E-02 
S    1    1.000000
   4.44553000E+01    2.60801000E-01 
S    1    1.000000
   1.30290000E+01    6.16462000E-01 
S    1    1.000000
   1.82773000E+00    2.21006000E-01 
SP   3    1.000000
   2.09642000E+01    1.14660000E-01   4.02487000E-02 
   4.80331000E+00    9.19999000E-01   2.37594000E-01 
   1.45933000E+00   -3.03068000E-03   8.15854000E-01 
SP   1    1.000000
   4.83456000E-01    1.00000000E+00   1.00000000E+00 
SP   1    1.000000
   1.45585000E-01    1.00000000E+00   1.00000000E+00 
SP   1    1.000000
   4.38000000E-02    1.00000000E+00   1.00000000E+00 
SP   1    1.000000
   1.31927711E-02    1.00000000E+00   1.00000000E+00 
D    1    1.000000
   6.26000000E-01    1.00000000E+00 

12    0
S    3    1.000000
   3.38650000E+01    2.54938000E-02 
   5.09479000E+00    1.90373000E-01 
   1.15879000E+00    8.52161000E-01 
S    1    1.000000
   3.25840000E-01    1.00000000E+00 
S    1    1.000000
   1.02741000E-01    1.00000000E+00 
S    1    1.000000
   3.60000000E-02    1.00000000E+00 
P    1    1.000000
   7.50000000E-01    1.00000000E+00 

[MO]
Sym=X
Ene=0.957653
Spin=Alpha
Occup=1
1    -8.14982335e-10
2    1.97977588e-09
3    -5.08464235e-08
4    6.47299903e-08
5    -1.72037172e-06
6    -6.88571809e-06
7    3.48321394e-06
8    1.82072007e-06
9    -7.04335741e-07
10    9.43537579e-16
11    1.98443873e-05
12    -1.79762126e-05
13    6.07866421e-06
14    2.73477458e-15
15    -0.000144811696
16    -2.68451707e-05
17    -0.000149288528
18    -3.50999426e-16
19    -0.00294936138
20    1.12471406e-05
21    -0.0012228635
22    4.92582421e-14
23    -0.00032547372
24    -0.00023852963
25    0.000199207185
26    1.05438012e-14
27    -8.07598879e-06
28    -3.10863413e-16
29    2.65363752e-06
30    2.46729544e-16
31    -5.15500103e-06
32    7.12319643e-06
33    -1.36013257e-05
34    -3.60183829e-05
35    9.23294596e-05
36    3.27791751e-06
37    -8.60654247e-06
38    1.94232395e-16
39    1.39335066e-06
40    -2.05935438e-05
41    -0.000111827318
42    -0.00075895528
43    -1.11855615e-06
44    -3.82748808e-06
45    4.38399359e-16
46    5.86609518e-06
47    -5.24820672e-08
48    -9.57445595e-05
49    0.000120444598
50    8.29698042e-06
51    2.42216696e-07
52    -2.98516408e-16
53    -9.2243183e-09
54    -1.27342078e-07
55    -2.97714125e-07
56    -3.20073273e-06
57    -8.26911899e-06
58    -0.000128639029
59    -1.19263779e-05
60    -3.18554593e-05
61    2.08737075e-05
62    7.71231553e-16
63    0.000462741299
64    -0.00047313335
65    0.000286590118
66    -4.15046612e-15
67    -0.000906811769
68    0.000492225251
69    -0.000320294415
70    2.75731277e-15
71    -0.00216891756
72    0.00280399688
73    -0.00177118042
74    4.81877918e-14
75    0.00147157999
76    0.000121362022
77    0.00024432317
78    6.59010799e-15
79    -0.000255468399
80    -6.21837265e-16
81    -8.3260339e-05
82    -3.12187913e-16
83    0.000129494726
84    0.00104387172
85    0.00794083452
86    0.0389364462
87    0.132511208
88    0.327972709
89    0.155488434
90    0.471317181
91    0.00167649129
92    -0.000963233192
93    -2.23150261e-16
94    0.00490449826
95    -0.000792918715
96    0.000454718748
97    -1.52307475e-15
98    -0.000593533035
99    0.00044058597
100    -0.000246075477
101    1.67289565e-15
102    0.00331594062
103    0.000227968462
104    -0.000154900087
105    -8.92863916e-15
106    0.00775703525
107    0.00143880449
108    -0.000702890208
109    3.69973174e-15
110    9.1859496e-05
111    -5.19109504e-16
112    -9.00459156e-05
113    -1.7265469e-16
114    -5.38863863e-05
115    -8.99469015e-10
116    2.14895037e-09
117    -5.60619326e-08
118    7.21304471e-08
119    -1.85488742e-06
120    -7.19772915e-06
121    3.69540049e-06
122    2.23791643e-06
123    5.62330372e-07
124    -4.76126934e-16
125    1.85419358e-05
126    -1.24859129e-05
127    3.35128131e-06
128    3.8016419e-15
129    6.84866562e-05
130    0.000247100707
131    0.000165874649
132    -5.87459252e-15
133    -0.00197267423
134    0.00118615435
135    0.000441942788
136    7.17315283e-14
137    -0.000440575218
138    0.000189212785
139    -0.000273196003
140    4.68284474e-14
141    3.76054427e-06
142    -5.2508688e-16
143    -5.24042914e-07
144    -1.4287895e-16
145    5.7761535e-06
146    1.15489974e-09
147    1.3389696e-08
148    3.25738151e-08
149    2.37082596e-07
150    -5.40608964e-07
151    -3.70895881e-06
152    3.07986505e-06
153    1.76781861e-06
154    -1.3258212e-07
155    7.55544929e-16
156    1.21814911e-05
157    -5.9799938e-06
158    -4.1850926e-07
159    -3.21806785e-16
160    -9.78783679e-05
161    5.9414008e-05
162    2.59003102e-05
163    4.91218549e-15
164    -0.000475520749
165    3.96815531e-05
166    7.4332226e-05
167    -5.25794809e-15
168    -0.00250359093
169    0.000400525449
170    8.26080846e-05
171    -1.2198872e-14
172    -1.72049805e-06
173    -4.21379183e-16
174    1.28239227e-06
175    -4.20093723e-16
176    -4.52880731e-07
177    -9.99343657e-10
178    2.93113763e-08
179    -1.1881645e-07
180    6.28904532e-07
181    -7.05845911e-06
182    -2.91391783e-05
183    2.01117525e-05
184    1.7235845e-05
185    -1.13530824e-06
186    1.71945225e-15
187    4.06390915e-05
188    -5.84269049e-05
189    -1.47213961e-06
190    -5.90400061e-15
191    2.29540913e-05
192    8.5812128e-06
193    -1.54338105e-05
194    1.40492569e-14
195    0.000202128813
196    -5.65939439e-05
197    0.000208375695
198    -4.092616e-14
199    -0.00150702546
200    0.00244528444
201    -6.22347525e-05
202    -4.27995114e-14
203    4.9869012e-06
204    -2.90039504e-16
205    -4.73448455e-06
206    -4.84213444e-16
207    3.31557297e-05
208    -1.39228855e-09
209    2.88695879e-08
210    -1.39457372e-07
211    6.31315761e-07
212    -7.62296172e-06
213    -3.10436661e-05
214    2.11339812e-05
215    9.00599185e-06
216    -1.51025662e-05
217    2.05253544e-15
218    4.75766766e-05
219    -2.45705836e-05
220    5.33118925e-05
221    -3.60510573e-15
222    -2.33051844e-05
223    1.22844861e-06
224    -2.71833561e-05
225    1.33942912e-14
226    0.000168226784
227    -8.32975764e-05
228    -3.00839236e-05
229    -3.84895254e-14
230    -0.0019037925
231    0.000377250006
232    -0.000764991657
233    -1.3659007e-14
234    -2.13407016e-05
235    -1.97304868e-16
236    -4.17496308e-06
237    2.63516247e-16
238    -2.43637344e-05
239    3.72328252e-11
240    2.7225466e-10
241    1.52026852e-09
242    1.33992775e-09
243    -6.72914278e-08
244    -1.14025055e-06
245    2.95103977e-07
246    1.29834945e-06
247    -6.40857822e-08
248    1.11465953e-15
249    -5.15097509e-09
250    -1.38803463e-05
251    1.32875486e-06
252    1.99102075e-15
253    0.000242902688
254    -0.000148939068
255    8.29975855e-05
256    7.72574827e-15
257    0.00320715024
258    -0.000756686745
259    0.000436681183
260    -5.03514421e-14
261    -0.000137501222
262    -0.000118827536
263    -0.000283972652
264    -2.67520376e-14
265    6.03376987e-06
266    -1.00533946e-17
267    1.38378458e-06
268    -4.29617681e-16
269    1.94034794e-07
270    6.38763862e-07
271    2.54742899e-05
272    5.72467357e-05
273    8.24293855e-05
274    -3.83016556e-06
275    2.57546634e-06
276    4.5032788e-16
[5D]