[Molden Format]
[Atoms] (Angs)
  C      1    6     -0.00714236     -1.70213747     -0.00000000
  H      2    1     -2.06882847     -1.44022412      0.00000000
  H      3    1     -0.12337987     -2.77567521      0.00000000
  H      4    1      0.04651892      1.98813947     -0.00000000
  C      5    6     -1.21953563      0.40211669      0.00000000
  O      6    8     -2.25921553      1.03043814      0.00000000
  C      7    6      1.28797806      0.34644937     -0.00000000
  O      8    8      2.31273661      1.00537216     -0.00000000
  N      9    7      0.03446295      0.97739857     -0.00000000
  N     10    7     -1.17287765     -0.98229824      0.00000000
  C     11    6      1.20107039     -1.10433419     -0.00000000
  H     12    1      2.11220096     -1.67699125     -0.00000000
[GTO]
1    0
S    1    1.000000
   4.56324000E+03    1.96665000E-03 
S    1    1.000000
   6.82024000E+02    1.52306000E-02 
S    1    1.000000
   1.54973000E+02    7.61269000E-02 
S    1    1.000000
   4.44553000E+01    2.60801000E-01 
S    1    1.000000
   1.30290000E+01    6.16462000E-01 
S    1    1.000000
   1.82773000E+00    2.21006000E-01 
SP   3    1.000000
   2.09642000E+01    1.14660000E-01   4.02487000E-02 
   4.80331000E+00    9.19999000E-01   2.37594000E-01 
   1.45933000E+00   -3.03068000E-03   8.15854000E-01 
SP   1    1.000000
   4.83456000E-01    1.00000000E+00   1.00000000E+00 
SP   1    1.000000
   1.45585000E-01    1.00000000E+00   1.00000000E+00 
SP   1    1.000000
   4.38000000E-02    1.00000000E+00   1.00000000E+00 
SP   1    1.000000
   1.31927711E-02    1.00000000E+00   1.00000000E+00 
D    1    1.000000
   6.26000000E-01    1.00000000E+00 

2    0
S    3    1.000000
   3.38650000E+01    2.54938000E-02 
   5.09479000E+00    1.90373000E-01 
   1.15879000E+00    8.52161000E-01 
S    1    1.000000
   3.25840000E-01    1.00000000E+00 
S    1    1.000000
   1.02741000E-01    1.00000000E+00 
S    1    1.000000
   3.60000000E-02    1.00000000E+00 
P    1    1.000000
   7.50000000E-01    1.00000000E+00 

3    0
S    3    1.000000
   3.38650000E+01    2.54938000E-02 
   5.09479000E+00    1.90373000E-01 
   1.15879000E+00    8.52161000E-01 
S    1    1.000000
   3.25840000E-01    1.00000000E+00 
S    1    1.000000
   1.02741000E-01    1.00000000E+00 
S    1    1.000000
   3.60000000E-02    1.00000000E+00 
P    1    1.000000
   7.50000000E-01    1.00000000E+00 

4    0
S    3    1.000000
   3.38650000E+01    2.54938000E-02 
   5.09479000E+00    1.90373000E-01 
   1.15879000E+00    8.52161000E-01 
S    1    1.000000
   3.25840000E-01    1.00000000E+00 
S    1    1.000000
   1.02741000E-01    1.00000000E+00 
S    1    1.000000
   3.60000000E-02    1.00000000E+00 
P    1    1.000000
   7.50000000E-01    1.00000000E+00 

5    0
S    1    1.000000
   4.56324000E+03    1.96665000E-03 
S    1    1.000000
   6.82024000E+02    1.52306000E-02 
S    1    1.000000
   1.54973000E+02    7.61269000E-02 
S    1    1.000000
   4.44553000E+01    2.60801000E-01 
S    1    1.000000
   1.30290000E+01    6.16462000E-01 
S    1    1.000000
   1.82773000E+00    2.21006000E-01 
SP   3    1.000000
   2.09642000E+01    1.14660000E-01   4.02487000E-02 
   4.80331000E+00    9.19999000E-01   2.37594000E-01 
   1.45933000E+00   -3.03068000E-03   8.15854000E-01 
SP   1    1.000000
   4.83456000E-01    1.00000000E+00   1.00000000E+00 
SP   1    1.000000
   1.45585000E-01    1.00000000E+00   1.00000000E+00 
SP   1    1.000000
   4.38000000E-02    1.00000000E+00   1.00000000E+00 
SP   1    1.000000
   1.31927711E-02    1.00000000E+00   1.00000000E+00 
D    1    1.000000
   6.26000000E-01    1.00000000E+00 

6    0
S    1    1.000000
   8.58850000E+03    1.89515000E-03 
S    1    1.000000
   1.29723000E+03    1.43859000E-02 
S    1    1.000000
   2.99296000E+02    7.07320000E-02 
S    1    1.000000
   8.73771000E+01    2.40001000E-01 
S    1    1.000000
   2.56789000E+01    5.94797000E-01 
S    1    1.000000
   3.74004000E+00    2.80802000E-01 
SP   3    1.000000
   4.21175000E+01    1.13889000E-01   3.65114000E-02 
   9.62837000E+00    9.20811000E-01   2.37153000E-01 
   2.85332000E+00   -3.27447000E-03   8.19702000E-01 
SP   1    1.000000
   9.05661000E-01    1.00000000E+00   1.00000000E+00 
SP   1    1.000000
   2.55611000E-01    1.00000000E+00   1.00000000E+00 
SP   1    1.000000
   8.45000000E-02    1.00000000E+00   1.00000000E+00 
SP   1    1.000000
   2.54518072E-02    1.00000000E+00   1.00000000E+00 
D    1    1.000000
   1.29200000E+00    1.00000000E+00 

7    0
S    1    1.000000
   4.56324000E+03    1.96665000E-03 
S    1    1.000000
   6.82024000E+02    1.52306000E-02 
S    1    1.000000
   1.54973000E+02    7.61269000E-02 
S    1    1.000000
   4.44553000E+01    2.60801000E-01 
S    1    1.000000
   1.30290000E+01    6.16462000E-01 
S    1    1.000000
   1.82773000E+00    2.21006000E-01 
SP   3    1.000000
   2.09642000E+01    1.14660000E-01   4.02487000E-02 
   4.80331000E+00    9.19999000E-01   2.37594000E-01 
   1.45933000E+00   -3.03068000E-03   8.15854000E-01 
SP   1    1.000000
   4.83456000E-01    1.00000000E+00   1.00000000E+00 
SP   1    1.000000
   1.45585000E-01    1.00000000E+00   1.00000000E+00 
SP   1    1.000000
   4.38000000E-02    1.00000000E+00   1.00000000E+00 
SP   1    1.000000
   1.31927711E-02    1.00000000E+00   1.00000000E+00 
D    1    1.000000
   6.26000000E-01    1.00000000E+00 

8    0
S    1    1.000000
   8.58850000E+03    1.89515000E-03 
S    1    1.000000
   1.29723000E+03    1.43859000E-02 
S    1    1.000000
   2.99296000E+02    7.07320000E-02 
S    1    1.000000
   8.73771000E+01    2.40001000E-01 
S    1    1.000000
   2.56789000E+01    5.94797000E-01 
S    1    1.000000
   3.74004000E+00    2.80802000E-01 
SP   3    1.000000
   4.21175000E+01    1.13889000E-01   3.65114000E-02 
   9.62837000E+00    9.20811000E-01   2.37153000E-01 
   2.85332000E+00   -3.27447000E-03   8.19702000E-01 
SP   1    1.000000
   9.05661000E-01    1.00000000E+00   1.00000000E+00 
SP   1    1.000000
   2.55611000E-01    1.00000000E+00   1.00000000E+00 
SP   1    1.000000
   8.45000000E-02    1.00000000E+00   1.00000000E+00 
SP   1    1.000000
   2.54518072E-02    1.00000000E+00   1.00000000E+00 
D    1    1.000000
   1.29200000E+00    1.00000000E+00 

9    0
S    1    1.000000
   6.29348000E+03    1.96979000E-03 
S    1    1.000000
   9.49044000E+02    1.49613000E-02 
S    1    1.000000
   2.18776000E+02    7.35006000E-02 
S    1    1.000000
   6.36916000E+01    2.48937000E-01 
S    1    1.000000
   1.88282000E+01    6.02460000E-01 
S    1    1.000000
   2.72023000E+00    2.56202000E-01 
SP   3    1.000000
   3.06331000E+01    1.11906000E-01   3.83119000E-02 
   7.02614000E+00    9.21666000E-01   2.37403000E-01 
   2.11205000E+00   -2.56919000E-03   8.17592000E-01 
SP   1    1.000000
   6.84009000E-01    1.00000000E+00   1.00000000E+00 
SP   1    1.000000
   2.00878000E-01    1.00000000E+00   1.00000000E+00 
SP   1    1.000000
   6.39000000E-02    1.00000000E+00   1.00000000E+00 
SP   1    1.000000
   1.92469880E-02    1.00000000E+00   1.00000000E+00 
D    1    1.000000
   9.13000000E-01    1.00000000E+00 

10    0
S    1    1.000000
   6.29348000E+03    1.96979000E-03 
S    1    1.000000
   9.49044000E+02    1.49613000E-02 
S    1    1.000000
   2.18776000E+02    7.35006000E-02 
S    1    1.000000
   6.36916000E+01    2.48937000E-01 
S    1    1.000000
   1.88282000E+01    6.02460000E-01 
S    1    1.000000
   2.72023000E+00    2.56202000E-01 
SP   3    1.000000
   3.06331000E+01    1.11906000E-01   3.83119000E-02 
   7.02614000E+00    9.21666000E-01   2.37403000E-01 
   2.11205000E+00   -2.56919000E-03   8.17592000E-01 
SP   1    1.000000
   6.84009000E-01    1.00000000E+00   1.00000000E+00 
SP   1    1.000000
   2.00878000E-01    1.00000000E+00   1.00000000E+00 
SP   1    1.000000
   6.39000000E-02    1.00000000E+00   1.00000000E+00 
SP   1    1.000000
   1.92469880E-02    1.00000000E+00   1.00000000E+00 
D    1    1.000000
   9.13000000E-01    1.00000000E+00 

11    0
S    1    1.000000
   4.56324000E+03    1.96665000E-03 
S    1    1.000000
   6.82024000E+02    1.52306000E-02 
S    1    1.000000
   1.54973000E+02    7.61269000E-02 
S    1    1.000000
   4.44553000E+01    2.60801000E-01 
S    1    1.000000
   1.30290000E+01    6.16462000E-01 
S    1    1.000000
   1.82773000E+00    2.21006000E-01 
SP   3    1.000000
   2.09642000E+01    1.14660000E-01   4.02487000E-02 
   4.80331000E+00    9.19999000E-01   2.37594000E-01 
   1.45933000E+00   -3.03068000E-03   8.15854000E-01 
SP   1    1.000000
   4.83456000E-01    1.00000000E+00   1.00000000E+00 
SP   1    1.000000
   1.45585000E-01    1.00000000E+00   1.00000000E+00 
SP   1    1.000000
   4.38000000E-02    1.00000000E+00   1.00000000E+00 
SP   1    1.000000
   1.31927711E-02    1.00000000E+00   1.00000000E+00 
D    1    1.000000
   6.26000000E-01    1.00000000E+00 

12    0
S    3    1.000000
   3.38650000E+01    2.54938000E-02 
   5.09479000E+00    1.90373000E-01 
   1.15879000E+00    8.52161000E-01 
S    1    1.000000
   3.25840000E-01    1.00000000E+00 
S    1    1.000000
   1.02741000E-01    1.00000000E+00 
S    1    1.000000
   3.60000000E-02    1.00000000E+00 
P    1    1.000000
   7.50000000E-01    1.00000000E+00 

[MO]
Sym=X
Ene=0.022433
Spin=Alpha
Occup=1
1    -1.7589917e-09
2    1.43000868e-08
3    -1.31933007e-07
4    3.58923006e-07
5    -5.30491835e-06
6    -2.06178397e-05
7    1.21090128e-05
8    2.17915023e-07
9    -2.31980046e-06
10    4.10404742e-17
11    5.3085486e-05
12    6.16567021e-06
13    1.391575e-05
14    -5.1960787e-16
15    -0.00067960518
16    -0.000112980284
17    -0.000300068899
18    -4.18642076e-15
19    0.00131306597
20    0.000430591567
21    -0.00044939975
22    5.06101357e-14
23    0.000694073009
24    0.000221980556
25    9.57770507e-05
26    -1.09132582e-13
27    1.7333434e-05
28    5.78746257e-17
29    2.36651095e-06
30    -3.60432755e-16
31    -1.22154226e-05
32    7.55619224e-07
33    3.03241239e-05
34    1.11262674e-05
35    0.000182607031
36    7.14757202e-07
37    2.58755825e-06
38    2.64593638e-16
39    -3.53073287e-06
40    -2.29598264e-06
41    -0.000179683852
42    -0.000345329758
43    6.82511457e-06
44    -3.1114741e-06
45    2.58686272e-16
46    3.71891781e-06
47    8.62897597e-05
48    2.17658351e-05
49    0.000165656957
50    -4.67812099e-06
51    -1.58265602e-05
52    -4.70669483e-16
53    -4.72243267e-10
54    -1.59787383e-09
55    -2.34012534e-08
56    -2.10385576e-08
57    -5.20635219e-07
58    -1.88035977e-06
59    6.23032665e-07
60    3.23837527e-06
61    7.4789339e-07
62    1.14716449e-15
63    1.05201827e-05
64    -1.87416362e-05
65    -2.13458665e-06
66    -2.05981486e-15
67    -0.000335344328
68    -0.000360365407
69    6.96604563e-05
70    4.69618432e-15
71    -0.00127305233
72    -0.00110003174
73    -4.49669536e-05
74    1.97371854e-14
75    -0.00131758756
76    -0.000307608472
77    -0.000436887733
78    5.66226405e-14
79    -4.68076444e-06
80    2.53144972e-16
81    5.28598703e-06
82    -1.36271589e-16
83    4.9825297e-07
84    -1.32366415e-07
85    -1.00758599e-06
86    -4.93568314e-06
87    -1.68162991e-05
88    -4.14717717e-05
89    -1.93327075e-05
90    -6.0054033e-05
91    -1.35621823e-06
92    -5.9350425e-07
93    -2.9772818e-16
94    9.01184019e-07
95    2.68393385e-06
96    1.68460885e-06
97    2.12873075e-15
98    -5.10571577e-05
99    -2.73362092e-05
100    1.92300745e-05
101    -3.83307464e-15
102    -0.000489212272
103    -8.22266599e-05
104    9.67684288e-05
105    8.323713e-15
106    -0.00220838913
107    -0.000320020206
108    7.64544449e-05
109    -1.95404946e-14
110    1.71785681e-06
111    -2.27455308e-17
112    1.22616321e-06
113    3.86640751e-16
114    6.97032749e-07
115    -1.07286227e-08
116    -1.28622383e-07
117    -3.67375443e-07
118    -3.3291602e-06
119    -1.50835126e-05
120    -0.000188771296
121    1.24790411e-05
122    1.56967676e-05
123    1.40736775e-05
124    -1.50338587e-15
125    0.000622709427
126    0.000640316981
127    0.000429728809
128    1.11854614e-15
129    -0.000555208843
130    0.000224721954
131    0.000243067722
132    -5.86041173e-15
133    -0.00191923369
134    -0.00295896573
135    -0.00104451099
136    7.13615762e-14
137    8.76078872e-05
138    -0.00048488221
139    0.000877149823
140    -6.64618921e-14
141    0.000366539273
142    -2.87105317e-17
143    -0.000113378335
144    -7.57722706e-17
145    0.00016565563
146    0.0010432174
147    0.0079357906
148    0.0389111518
149    0.13241907
150    0.327730992
151    0.156373333
152    0.470647962
153    -0.00168339403
154    -0.00106120539
155    -8.90286658e-18
156    0.00575830073
157    0.000805367574
158    0.00050363651
159    -2.38149051e-15
160    -0.00152351646
161    -7.8483388e-05
162    -4.49092193e-05
163    4.08711567e-15
164    0.00291499956
165    -0.000217344506
166    -0.000190759687
167    -1.49627327e-14
168    0.00636595963
169    -0.00116865783
170    -0.000422905225
171    -3.05813898e-15
172    -0.000426843574
173    2.35289266e-16
174    -0.000118242537
175    1.37440835e-16
176    -0.000213806408
177    -1.25670517e-09
178    2.59812853e-08
179    -1.25633237e-07
180    5.70143668e-07
181    -6.82258096e-06
182    -2.70271443e-05
183    1.8912784e-05
184    -2.49974257e-05
185    1.61362242e-06
186    1.94670621e-16
187    1.20734547e-05
188    9.29768172e-05
189    -1.53053029e-05
190    -1.31037972e-15
191    0.000315465717
192    -0.000159418142
193    -0.00026742118
194    5.65986323e-15
195    0.000210229105
196    -0.000450247875
197    -4.19354943e-05
198    -2.91966929e-14
199    -0.00205366172
200    -0.00282117786
201    -4.05428608e-05
202    -2.47280776e-14
203    -1.76149476e-05
204    5.88432896e-16
205    -1.09559802e-05
206    -7.54433211e-17
207    4.87154397e-05
208    -1.97434626e-10
209    4.43210008e-09
210    -2.10802667e-08
211    9.63336592e-08
212    -1.10818752e-06
213    -4.38914074e-06
214    2.82652523e-06
215    6.11251447e-08
216    6.46513705e-07
217    8.29039831e-16
218    3.65139483e-06
219    2.16524624e-06
220    -2.73074948e-06
221    -2.55500386e-15
222    0.000149570074
223    0.00013157779
224    4.18200841e-05
225    6.97364212e-15
226    0.000744212349
227    0.000299760398
228    4.49142032e-05
229    -2.91772729e-14
230    -0.000144713359
231    0.000294238798
232    -0.000144624711
233    1.33549629e-14
234    -4.99419815e-06
235    1.44638101e-16
236    1.19141017e-06
237    1.29281757e-16
238    -2.17783974e-06
239    6.567075e-10
240    2.31089436e-08
241    -1.24321488e-08
242    4.62177473e-07
243    -3.30471843e-06
244    -1.74220825e-05
245    1.15455267e-05
246    -1.00620726e-05
247    -2.32729376e-05
248    9.58510485e-16
249    3.56721063e-06
250    2.1753672e-05
251    0.000130218818
252    -4.20640524e-15
253    0.000631201593
254    -0.000479474809
255    7.72197223e-05
256    1.06454429e-14
257    -0.00150676084
258    0.00145030339
259    0.000331045161
260    -7.46265202e-14
261    0.000801762356
262    0.000327755678
263    0.000124140534
264    1.28921568e-13
265    5.98789982e-05
266    -1.38204099e-16
267    -5.85389082e-06
268    -3.02928246e-16
269    -6.18353491e-05
270    3.67786991e-06
271    0.000138022152
272    3.50768097e-05
273    -0.000920699731
274    -2.8965667e-05
275    1.65173832e-05
276    -1.4087831e-16
[5D]