[Molden Format]
[Atoms] (Angs)
  C      1    6     -0.00714236     -1.70213747     -0.00000000
  H      2    1     -2.06882847     -1.44022412      0.00000000
  H      3    1     -0.12337987     -2.77567521      0.00000000
  H      4    1      0.04651892      1.98813947     -0.00000000
  C      5    6     -1.21953563      0.40211669      0.00000000
  O      6    8     -2.25921553      1.03043814      0.00000000
  C      7    6      1.28797806      0.34644937     -0.00000000
  O      8    8      2.31273661      1.00537216     -0.00000000
  N      9    7      0.03446295      0.97739857     -0.00000000
  N     10    7     -1.17287765     -0.98229824      0.00000000
  C     11    6      1.20107039     -1.10433419     -0.00000000
  H     12    1      2.11220096     -1.67699125     -0.00000000
[GTO]
1    0
S    1    1.000000
   4.56324000E+03    1.96665000E-03 
S    1    1.000000
   6.82024000E+02    1.52306000E-02 
S    1    1.000000
   1.54973000E+02    7.61269000E-02 
S    1    1.000000
   4.44553000E+01    2.60801000E-01 
S    1    1.000000
   1.30290000E+01    6.16462000E-01 
S    1    1.000000
   1.82773000E+00    2.21006000E-01 
SP   3    1.000000
   2.09642000E+01    1.14660000E-01   4.02487000E-02 
   4.80331000E+00    9.19999000E-01   2.37594000E-01 
   1.45933000E+00   -3.03068000E-03   8.15854000E-01 
SP   1    1.000000
   4.83456000E-01    1.00000000E+00   1.00000000E+00 
SP   1    1.000000
   1.45585000E-01    1.00000000E+00   1.00000000E+00 
SP   1    1.000000
   4.38000000E-02    1.00000000E+00   1.00000000E+00 
SP   1    1.000000
   1.31927711E-02    1.00000000E+00   1.00000000E+00 
D    1    1.000000
   6.26000000E-01    1.00000000E+00 

2    0
S    3    1.000000
   3.38650000E+01    2.54938000E-02 
   5.09479000E+00    1.90373000E-01 
   1.15879000E+00    8.52161000E-01 
S    1    1.000000
   3.25840000E-01    1.00000000E+00 
S    1    1.000000
   1.02741000E-01    1.00000000E+00 
S    1    1.000000
   3.60000000E-02    1.00000000E+00 
P    1    1.000000
   7.50000000E-01    1.00000000E+00 

3    0
S    3    1.000000
   3.38650000E+01    2.54938000E-02 
   5.09479000E+00    1.90373000E-01 
   1.15879000E+00    8.52161000E-01 
S    1    1.000000
   3.25840000E-01    1.00000000E+00 
S    1    1.000000
   1.02741000E-01    1.00000000E+00 
S    1    1.000000
   3.60000000E-02    1.00000000E+00 
P    1    1.000000
   7.50000000E-01    1.00000000E+00 

4    0
S    3    1.000000
   3.38650000E+01    2.54938000E-02 
   5.09479000E+00    1.90373000E-01 
   1.15879000E+00    8.52161000E-01 
S    1    1.000000
   3.25840000E-01    1.00000000E+00 
S    1    1.000000
   1.02741000E-01    1.00000000E+00 
S    1    1.000000
   3.60000000E-02    1.00000000E+00 
P    1    1.000000
   7.50000000E-01    1.00000000E+00 

5    0
S    1    1.000000
   4.56324000E+03    1.96665000E-03 
S    1    1.000000
   6.82024000E+02    1.52306000E-02 
S    1    1.000000
   1.54973000E+02    7.61269000E-02 
S    1    1.000000
   4.44553000E+01    2.60801000E-01 
S    1    1.000000
   1.30290000E+01    6.16462000E-01 
S    1    1.000000
   1.82773000E+00    2.21006000E-01 
SP   3    1.000000
   2.09642000E+01    1.14660000E-01   4.02487000E-02 
   4.80331000E+00    9.19999000E-01   2.37594000E-01 
   1.45933000E+00   -3.03068000E-03   8.15854000E-01 
SP   1    1.000000
   4.83456000E-01    1.00000000E+00   1.00000000E+00 
SP   1    1.000000
   1.45585000E-01    1.00000000E+00   1.00000000E+00 
SP   1    1.000000
   4.38000000E-02    1.00000000E+00   1.00000000E+00 
SP   1    1.000000
   1.31927711E-02    1.00000000E+00   1.00000000E+00 
D    1    1.000000
   6.26000000E-01    1.00000000E+00 

6    0
S    1    1.000000
   8.58850000E+03    1.89515000E-03 
S    1    1.000000
   1.29723000E+03    1.43859000E-02 
S    1    1.000000
   2.99296000E+02    7.07320000E-02 
S    1    1.000000
   8.73771000E+01    2.40001000E-01 
S    1    1.000000
   2.56789000E+01    5.94797000E-01 
S    1    1.000000
   3.74004000E+00    2.80802000E-01 
SP   3    1.000000
   4.21175000E+01    1.13889000E-01   3.65114000E-02 
   9.62837000E+00    9.20811000E-01   2.37153000E-01 
   2.85332000E+00   -3.27447000E-03   8.19702000E-01 
SP   1    1.000000
   9.05661000E-01    1.00000000E+00   1.00000000E+00 
SP   1    1.000000
   2.55611000E-01    1.00000000E+00   1.00000000E+00 
SP   1    1.000000
   8.45000000E-02    1.00000000E+00   1.00000000E+00 
SP   1    1.000000
   2.54518072E-02    1.00000000E+00   1.00000000E+00 
D    1    1.000000
   1.29200000E+00    1.00000000E+00 

7    0
S    1    1.000000
   4.56324000E+03    1.96665000E-03 
S    1    1.000000
   6.82024000E+02    1.52306000E-02 
S    1    1.000000
   1.54973000E+02    7.61269000E-02 
S    1    1.000000
   4.44553000E+01    2.60801000E-01 
S    1    1.000000
   1.30290000E+01    6.16462000E-01 
S    1    1.000000
   1.82773000E+00    2.21006000E-01 
SP   3    1.000000
   2.09642000E+01    1.14660000E-01   4.02487000E-02 
   4.80331000E+00    9.19999000E-01   2.37594000E-01 
   1.45933000E+00   -3.03068000E-03   8.15854000E-01 
SP   1    1.000000
   4.83456000E-01    1.00000000E+00   1.00000000E+00 
SP   1    1.000000
   1.45585000E-01    1.00000000E+00   1.00000000E+00 
SP   1    1.000000
   4.38000000E-02    1.00000000E+00   1.00000000E+00 
SP   1    1.000000
   1.31927711E-02    1.00000000E+00   1.00000000E+00 
D    1    1.000000
   6.26000000E-01    1.00000000E+00 

8    0
S    1    1.000000
   8.58850000E+03    1.89515000E-03 
S    1    1.000000
   1.29723000E+03    1.43859000E-02 
S    1    1.000000
   2.99296000E+02    7.07320000E-02 
S    1    1.000000
   8.73771000E+01    2.40001000E-01 
S    1    1.000000
   2.56789000E+01    5.94797000E-01 
S    1    1.000000
   3.74004000E+00    2.80802000E-01 
SP   3    1.000000
   4.21175000E+01    1.13889000E-01   3.65114000E-02 
   9.62837000E+00    9.20811000E-01   2.37153000E-01 
   2.85332000E+00   -3.27447000E-03   8.19702000E-01 
SP   1    1.000000
   9.05661000E-01    1.00000000E+00   1.00000000E+00 
SP   1    1.000000
   2.55611000E-01    1.00000000E+00   1.00000000E+00 
SP   1    1.000000
   8.45000000E-02    1.00000000E+00   1.00000000E+00 
SP   1    1.000000
   2.54518072E-02    1.00000000E+00   1.00000000E+00 
D    1    1.000000
   1.29200000E+00    1.00000000E+00 

9    0
S    1    1.000000
   6.29348000E+03    1.96979000E-03 
S    1    1.000000
   9.49044000E+02    1.49613000E-02 
S    1    1.000000
   2.18776000E+02    7.35006000E-02 
S    1    1.000000
   6.36916000E+01    2.48937000E-01 
S    1    1.000000
   1.88282000E+01    6.02460000E-01 
S    1    1.000000
   2.72023000E+00    2.56202000E-01 
SP   3    1.000000
   3.06331000E+01    1.11906000E-01   3.83119000E-02 
   7.02614000E+00    9.21666000E-01   2.37403000E-01 
   2.11205000E+00   -2.56919000E-03   8.17592000E-01 
SP   1    1.000000
   6.84009000E-01    1.00000000E+00   1.00000000E+00 
SP   1    1.000000
   2.00878000E-01    1.00000000E+00   1.00000000E+00 
SP   1    1.000000
   6.39000000E-02    1.00000000E+00   1.00000000E+00 
SP   1    1.000000
   1.92469880E-02    1.00000000E+00   1.00000000E+00 
D    1    1.000000
   9.13000000E-01    1.00000000E+00 

10    0
S    1    1.000000
   6.29348000E+03    1.96979000E-03 
S    1    1.000000
   9.49044000E+02    1.49613000E-02 
S    1    1.000000
   2.18776000E+02    7.35006000E-02 
S    1    1.000000
   6.36916000E+01    2.48937000E-01 
S    1    1.000000
   1.88282000E+01    6.02460000E-01 
S    1    1.000000
   2.72023000E+00    2.56202000E-01 
SP   3    1.000000
   3.06331000E+01    1.11906000E-01   3.83119000E-02 
   7.02614000E+00    9.21666000E-01   2.37403000E-01 
   2.11205000E+00   -2.56919000E-03   8.17592000E-01 
SP   1    1.000000
   6.84009000E-01    1.00000000E+00   1.00000000E+00 
SP   1    1.000000
   2.00878000E-01    1.00000000E+00   1.00000000E+00 
SP   1    1.000000
   6.39000000E-02    1.00000000E+00   1.00000000E+00 
SP   1    1.000000
   1.92469880E-02    1.00000000E+00   1.00000000E+00 
D    1    1.000000
   9.13000000E-01    1.00000000E+00 

11    0
S    1    1.000000
   4.56324000E+03    1.96665000E-03 
S    1    1.000000
   6.82024000E+02    1.52306000E-02 
S    1    1.000000
   1.54973000E+02    7.61269000E-02 
S    1    1.000000
   4.44553000E+01    2.60801000E-01 
S    1    1.000000
   1.30290000E+01    6.16462000E-01 
S    1    1.000000
   1.82773000E+00    2.21006000E-01 
SP   3    1.000000
   2.09642000E+01    1.14660000E-01   4.02487000E-02 
   4.80331000E+00    9.19999000E-01   2.37594000E-01 
   1.45933000E+00   -3.03068000E-03   8.15854000E-01 
SP   1    1.000000
   4.83456000E-01    1.00000000E+00   1.00000000E+00 
SP   1    1.000000
   1.45585000E-01    1.00000000E+00   1.00000000E+00 
SP   1    1.000000
   4.38000000E-02    1.00000000E+00   1.00000000E+00 
SP   1    1.000000
   1.31927711E-02    1.00000000E+00   1.00000000E+00 
D    1    1.000000
   6.26000000E-01    1.00000000E+00 

12    0
S    3    1.000000
   3.38650000E+01    2.54938000E-02 
   5.09479000E+00    1.90373000E-01 
   1.15879000E+00    8.52161000E-01 
S    1    1.000000
   3.25840000E-01    1.00000000E+00 
S    1    1.000000
   1.02741000E-01    1.00000000E+00 
S    1    1.000000
   3.60000000E-02    1.00000000E+00 
P    1    1.000000
   7.50000000E-01    1.00000000E+00 

[MO]
Sym=X
Ene=0.004855
Spin=Alpha
Occup=1
1    -1.75826244e-09
2    1.42983101e-08
3    -1.31887497e-07
4    3.58864972e-07
5    -5.30337811e-06
6    -2.06116753e-05
7    1.21058936e-05
8    2.16287708e-07
9    -2.3191698e-06
10    4.01972002e-17
11    5.30677236e-05
12    6.18173265e-06
13    1.39103103e-05
14    -5.22051711e-16
15    -0.000679475412
16    -0.000112956234
17    -0.000299935325
18    -4.18610493e-15
19    0.00131570118
20    0.000430581295
21    -0.00044830663
22    5.0566087e-14
23    0.000694363535
24    0.00022219362
25    9.55989674e-05
26    -1.0914195e-13
27    1.73406428e-05
28    5.81524192e-17
29    2.36413814e-06
30    -3.60653076e-16
31    -1.22108092e-05
32    7.49252735e-07
33    3.03362641e-05
34    1.11584518e-05
35    0.000182524421
36    7.11827314e-07
37    2.59524871e-06
38    2.64419915e-16
39    -3.53197632e-06
40    -2.27757672e-06
41    -0.000179583818
42    -0.000344651292
43    6.82611075e-06
44    -3.10805183e-06
45    2.58294336e-16
46    3.71367329e-06
47    8.62897625e-05
48    2.18513923e-05
49    0.000165549229
50    -4.68553373e-06
51    -1.58267685e-05
52    -4.70402454e-16
53    -4.6399912e-10
54    -1.48406558e-09
55    -2.313517e-08
56    -1.81780063e-08
57    -5.13244723e-07
58    -1.76539227e-06
59    6.3369112e-07
60    3.26684329e-06
61    7.29237877e-07
62    1.14647464e-15
63    1.01066188e-05
64    -1.83187805e-05
65    -2.39071524e-06
66    -2.05610448e-15
67    -0.000334533726
68    -0.000360805131
69    6.99466724e-05
70    4.69371767e-15
71    -0.00127111329
72    -0.00110253715
73    -4.33840014e-05
74    1.96941092e-14
75    -0.00131890206
76    -0.000307716778
77    -0.000437105865
78    5.66167219e-14
79    -4.45244628e-06
80    2.53700587e-16
81    5.36039528e-06
82    -1.35992513e-16
83    3.82521428e-07
84    -1.06528943e-06
85    -8.10442282e-06
86    -3.97337393e-05
87    -0.000135243452
88    -0.00033458565
89    -0.000158294934
90    -0.000481276906
91    -2.85452177e-06
92    2.6735133e-07
93    -2.97528595e-16
94    -3.48203666e-06
95    3.39257527e-06
96    1.27821934e-06
97    2.13009085e-15
98    -5.05266826e-05
99    -2.77299532e-05
100    1.94499859e-05
101    -3.83456777e-15
102    -0.000492175525
103    -8.24303565e-05
104    9.69068157e-05
105    8.33168839e-15
106    -0.00221532057
107    -0.000321305923
108    7.70825888e-05
109    -1.95437911e-14
110    1.63575978e-06
111    -2.22815835e-17
112    1.30663791e-06
113    3.86794857e-16
114    7.45191426e-07
115    -1.07278134e-08
116    -1.28624237e-07
117    -3.67325152e-07
118    -3.32922296e-06
119    -1.50818472e-05
120    -0.000188764767
121    1.2475732e-05
122    1.56947596e-05
123    1.40731678e-05
124    -1.50295958e-15
125    0.000622692538
126    0.000640327812
127    0.000429725595
128    1.11514799e-15
129    -0.000555269766
130    0.000224501001
131    0.000242919353
132    -5.85515852e-15
133    -0.0019174697
134    -0.0029600243
135    -0.00104490543
136    7.12974322e-14
137    8.80015908e-05
138    -0.000485051064
139    0.000877393533
140    -6.65037093e-14
141    0.000366535725
142    -2.82412393e-17
143    -0.000113377809
144    -7.56445389e-17
145    0.000165650383
146    0.00104321687
147    0.00793578653
148    0.0389111319
149    0.132419002
150    0.327730824
151    0.156373256
152    0.470647718
153    -0.00168339475
154    -0.00106120473
155    -9.57810333e-18
156    0.00575828689
157    0.000805372507
158    0.000503636627
159    -2.38120169e-15
160    -0.00152342821
161    -7.8536447e-05
162    -4.49323438e-05
163    4.08272349e-15
164    0.00291542305
165    -0.000217379859
166    -0.000190826021
167    -1.49580259e-14
168    0.00636819387
169    -0.00116901519
170    -0.000422978836
171    -3.04723511e-15
172    -0.000426841818
173    2.35665738e-16
174    -0.000118243622
175    1.37816208e-16
176    -0.000213805894
177    -1.2558114e-09
178    2.5955076e-08
179    -1.25526984e-07
180    5.69581316e-07
181    -6.81626922e-06
182    -2.70010884e-05
183    1.88948002e-05
184    -2.50128168e-05
185    1.61463624e-06
186    1.93133822e-16
187    1.20371288e-05
188    9.30289866e-05
189    -1.53039794e-05
190    -1.30510256e-15
191    0.000315445041
192    -0.000159425729
193    -0.00026740725
194    5.64730431e-15
195    0.000210048352
196    -0.000450197065
197    -4.21217012e-05
198    -2.91601016e-14
199    -0.00205231382
200    -0.00282336181
201    -4.04872199e-05
202    -2.46898145e-14
203    -1.76193955e-05
204    5.88691808e-16
205    -1.09517433e-05
206    -7.5010534e-17
207    4.8685783e-05
208    -1.96190216e-10
209    4.40629665e-09
210    -2.09556209e-08
211    9.5769394e-08
212    -1.1013742e-06
213    -4.36139432e-06
214    2.80763604e-06
215    5.30763297e-08
216    6.60010753e-07
217    8.27205027e-16
218    3.608873e-06
219    2.18720421e-06
220    -2.77839368e-06
221    -2.55178061e-15
222    0.000149590826
223    0.000131576625
224    4.18443569e-05
225    6.96166788e-15
226    0.000744061622
227    0.000299834689
228    4.49410666e-05
229    -2.91428593e-14
230    -0.000143011838
231    0.000293901493
232    -0.000143940953
233    1.33671633e-14
234    -4.9751231e-06
235    1.44814361e-16
236    1.19514078e-06
237    1.29046182e-16
238    -2.15606441e-06
239    6.56673888e-10
240    2.31086885e-08
241    -1.24335011e-08
242    4.62176039e-07
243    -3.3046566e-06
244    -1.74210545e-05
245    1.1545257e-05
246    -1.00632278e-05
247    -2.32728685e-05
248    9.57513808e-16
249    3.56721341e-06
250    2.17660659e-05
251    0.000130217564
252    -4.20818249e-15
253    0.000630984185
254    -0.000479341455
255    7.71455067e-05
256    1.06385329e-14
257    -0.00150962635
258    0.00145097891
259    0.000330654724
260    -7.45814822e-14
261    0.000801884833
262    0.000327861709
263    0.000124394261
264    1.28945411e-13
265    5.98735751e-05
266    -1.38195043e-16
267    -5.85512454e-06
268    -3.02544135e-16
269    -6.18354909e-05
270    3.67729716e-06
271    0.000137999315
272    3.50256296e-05
273    -0.000920772929
274    -2.89622291e-05
275    1.65150731e-05
276    -1.41280702e-16
[5D]