[Molden Format]
[Atoms] (Angs)
  C      1    6     -0.00714236     -1.70213747     -0.00000000
  H      2    1     -2.06882847     -1.44022412      0.00000000
  H      3    1     -0.12337987     -2.77567521      0.00000000
  H      4    1      0.04651892      1.98813947     -0.00000000
  C      5    6     -1.21953563      0.40211669      0.00000000
  O      6    8     -2.25921553      1.03043814      0.00000000
  C      7    6      1.28797806      0.34644937     -0.00000000
  O      8    8      2.31273661      1.00537216     -0.00000000
  N      9    7      0.03446295      0.97739857     -0.00000000
  N     10    7     -1.17287765     -0.98229824      0.00000000
  C     11    6      1.20107039     -1.10433419     -0.00000000
  H     12    1      2.11220096     -1.67699125     -0.00000000
[GTO]
1    0
S    1    1.000000
   4.56324000E+03    1.96665000E-03 
S    1    1.000000
   6.82024000E+02    1.52306000E-02 
S    1    1.000000
   1.54973000E+02    7.61269000E-02 
S    1    1.000000
   4.44553000E+01    2.60801000E-01 
S    1    1.000000
   1.30290000E+01    6.16462000E-01 
S    1    1.000000
   1.82773000E+00    2.21006000E-01 
SP   3    1.000000
   2.09642000E+01    1.14660000E-01   4.02487000E-02 
   4.80331000E+00    9.19999000E-01   2.37594000E-01 
   1.45933000E+00   -3.03068000E-03   8.15854000E-01 
SP   1    1.000000
   4.83456000E-01    1.00000000E+00   1.00000000E+00 
SP   1    1.000000
   1.45585000E-01    1.00000000E+00   1.00000000E+00 
SP   1    1.000000
   4.38000000E-02    1.00000000E+00   1.00000000E+00 
SP   1    1.000000
   1.31927711E-02    1.00000000E+00   1.00000000E+00 
D    1    1.000000
   6.26000000E-01    1.00000000E+00 

2    0
S    3    1.000000
   3.38650000E+01    2.54938000E-02 
   5.09479000E+00    1.90373000E-01 
   1.15879000E+00    8.52161000E-01 
S    1    1.000000
   3.25840000E-01    1.00000000E+00 
S    1    1.000000
   1.02741000E-01    1.00000000E+00 
S    1    1.000000
   3.60000000E-02    1.00000000E+00 
P    1    1.000000
   7.50000000E-01    1.00000000E+00 

3    0
S    3    1.000000
   3.38650000E+01    2.54938000E-02 
   5.09479000E+00    1.90373000E-01 
   1.15879000E+00    8.52161000E-01 
S    1    1.000000
   3.25840000E-01    1.00000000E+00 
S    1    1.000000
   1.02741000E-01    1.00000000E+00 
S    1    1.000000
   3.60000000E-02    1.00000000E+00 
P    1    1.000000
   7.50000000E-01    1.00000000E+00 

4    0
S    3    1.000000
   3.38650000E+01    2.54938000E-02 
   5.09479000E+00    1.90373000E-01 
   1.15879000E+00    8.52161000E-01 
S    1    1.000000
   3.25840000E-01    1.00000000E+00 
S    1    1.000000
   1.02741000E-01    1.00000000E+00 
S    1    1.000000
   3.60000000E-02    1.00000000E+00 
P    1    1.000000
   7.50000000E-01    1.00000000E+00 

5    0
S    1    1.000000
   4.56324000E+03    1.96665000E-03 
S    1    1.000000
   6.82024000E+02    1.52306000E-02 
S    1    1.000000
   1.54973000E+02    7.61269000E-02 
S    1    1.000000
   4.44553000E+01    2.60801000E-01 
S    1    1.000000
   1.30290000E+01    6.16462000E-01 
S    1    1.000000
   1.82773000E+00    2.21006000E-01 
SP   3    1.000000
   2.09642000E+01    1.14660000E-01   4.02487000E-02 
   4.80331000E+00    9.19999000E-01   2.37594000E-01 
   1.45933000E+00   -3.03068000E-03   8.15854000E-01 
SP   1    1.000000
   4.83456000E-01    1.00000000E+00   1.00000000E+00 
SP   1    1.000000
   1.45585000E-01    1.00000000E+00   1.00000000E+00 
SP   1    1.000000
   4.38000000E-02    1.00000000E+00   1.00000000E+00 
SP   1    1.000000
   1.31927711E-02    1.00000000E+00   1.00000000E+00 
D    1    1.000000
   6.26000000E-01    1.00000000E+00 

6    0
S    1    1.000000
   8.58850000E+03    1.89515000E-03 
S    1    1.000000
   1.29723000E+03    1.43859000E-02 
S    1    1.000000
   2.99296000E+02    7.07320000E-02 
S    1    1.000000
   8.73771000E+01    2.40001000E-01 
S    1    1.000000
   2.56789000E+01    5.94797000E-01 
S    1    1.000000
   3.74004000E+00    2.80802000E-01 
SP   3    1.000000
   4.21175000E+01    1.13889000E-01   3.65114000E-02 
   9.62837000E+00    9.20811000E-01   2.37153000E-01 
   2.85332000E+00   -3.27447000E-03   8.19702000E-01 
SP   1    1.000000
   9.05661000E-01    1.00000000E+00   1.00000000E+00 
SP   1    1.000000
   2.55611000E-01    1.00000000E+00   1.00000000E+00 
SP   1    1.000000
   8.45000000E-02    1.00000000E+00   1.00000000E+00 
SP   1    1.000000
   2.54518072E-02    1.00000000E+00   1.00000000E+00 
D    1    1.000000
   1.29200000E+00    1.00000000E+00 

7    0
S    1    1.000000
   4.56324000E+03    1.96665000E-03 
S    1    1.000000
   6.82024000E+02    1.52306000E-02 
S    1    1.000000
   1.54973000E+02    7.61269000E-02 
S    1    1.000000
   4.44553000E+01    2.60801000E-01 
S    1    1.000000
   1.30290000E+01    6.16462000E-01 
S    1    1.000000
   1.82773000E+00    2.21006000E-01 
SP   3    1.000000
   2.09642000E+01    1.14660000E-01   4.02487000E-02 
   4.80331000E+00    9.19999000E-01   2.37594000E-01 
   1.45933000E+00   -3.03068000E-03   8.15854000E-01 
SP   1    1.000000
   4.83456000E-01    1.00000000E+00   1.00000000E+00 
SP   1    1.000000
   1.45585000E-01    1.00000000E+00   1.00000000E+00 
SP   1    1.000000
   4.38000000E-02    1.00000000E+00   1.00000000E+00 
SP   1    1.000000
   1.31927711E-02    1.00000000E+00   1.00000000E+00 
D    1    1.000000
   6.26000000E-01    1.00000000E+00 

8    0
S    1    1.000000
   8.58850000E+03    1.89515000E-03 
S    1    1.000000
   1.29723000E+03    1.43859000E-02 
S    1    1.000000
   2.99296000E+02    7.07320000E-02 
S    1    1.000000
   8.73771000E+01    2.40001000E-01 
S    1    1.000000
   2.56789000E+01    5.94797000E-01 
S    1    1.000000
   3.74004000E+00    2.80802000E-01 
SP   3    1.000000
   4.21175000E+01    1.13889000E-01   3.65114000E-02 
   9.62837000E+00    9.20811000E-01   2.37153000E-01 
   2.85332000E+00   -3.27447000E-03   8.19702000E-01 
SP   1    1.000000
   9.05661000E-01    1.00000000E+00   1.00000000E+00 
SP   1    1.000000
   2.55611000E-01    1.00000000E+00   1.00000000E+00 
SP   1    1.000000
   8.45000000E-02    1.00000000E+00   1.00000000E+00 
SP   1    1.000000
   2.54518072E-02    1.00000000E+00   1.00000000E+00 
D    1    1.000000
   1.29200000E+00    1.00000000E+00 

9    0
S    1    1.000000
   6.29348000E+03    1.96979000E-03 
S    1    1.000000
   9.49044000E+02    1.49613000E-02 
S    1    1.000000
   2.18776000E+02    7.35006000E-02 
S    1    1.000000
   6.36916000E+01    2.48937000E-01 
S    1    1.000000
   1.88282000E+01    6.02460000E-01 
S    1    1.000000
   2.72023000E+00    2.56202000E-01 
SP   3    1.000000
   3.06331000E+01    1.11906000E-01   3.83119000E-02 
   7.02614000E+00    9.21666000E-01   2.37403000E-01 
   2.11205000E+00   -2.56919000E-03   8.17592000E-01 
SP   1    1.000000
   6.84009000E-01    1.00000000E+00   1.00000000E+00 
SP   1    1.000000
   2.00878000E-01    1.00000000E+00   1.00000000E+00 
SP   1    1.000000
   6.39000000E-02    1.00000000E+00   1.00000000E+00 
SP   1    1.000000
   1.92469880E-02    1.00000000E+00   1.00000000E+00 
D    1    1.000000
   9.13000000E-01    1.00000000E+00 

10    0
S    1    1.000000
   6.29348000E+03    1.96979000E-03 
S    1    1.000000
   9.49044000E+02    1.49613000E-02 
S    1    1.000000
   2.18776000E+02    7.35006000E-02 
S    1    1.000000
   6.36916000E+01    2.48937000E-01 
S    1    1.000000
   1.88282000E+01    6.02460000E-01 
S    1    1.000000
   2.72023000E+00    2.56202000E-01 
SP   3    1.000000
   3.06331000E+01    1.11906000E-01   3.83119000E-02 
   7.02614000E+00    9.21666000E-01   2.37403000E-01 
   2.11205000E+00   -2.56919000E-03   8.17592000E-01 
SP   1    1.000000
   6.84009000E-01    1.00000000E+00   1.00000000E+00 
SP   1    1.000000
   2.00878000E-01    1.00000000E+00   1.00000000E+00 
SP   1    1.000000
   6.39000000E-02    1.00000000E+00   1.00000000E+00 
SP   1    1.000000
   1.92469880E-02    1.00000000E+00   1.00000000E+00 
D    1    1.000000
   9.13000000E-01    1.00000000E+00 

11    0
S    1    1.000000
   4.56324000E+03    1.96665000E-03 
S    1    1.000000
   6.82024000E+02    1.52306000E-02 
S    1    1.000000
   1.54973000E+02    7.61269000E-02 
S    1    1.000000
   4.44553000E+01    2.60801000E-01 
S    1    1.000000
   1.30290000E+01    6.16462000E-01 
S    1    1.000000
   1.82773000E+00    2.21006000E-01 
SP   3    1.000000
   2.09642000E+01    1.14660000E-01   4.02487000E-02 
   4.80331000E+00    9.19999000E-01   2.37594000E-01 
   1.45933000E+00   -3.03068000E-03   8.15854000E-01 
SP   1    1.000000
   4.83456000E-01    1.00000000E+00   1.00000000E+00 
SP   1    1.000000
   1.45585000E-01    1.00000000E+00   1.00000000E+00 
SP   1    1.000000
   4.38000000E-02    1.00000000E+00   1.00000000E+00 
SP   1    1.000000
   1.31927711E-02    1.00000000E+00   1.00000000E+00 
D    1    1.000000
   6.26000000E-01    1.00000000E+00 

12    0
S    3    1.000000
   3.38650000E+01    2.54938000E-02 
   5.09479000E+00    1.90373000E-01 
   1.15879000E+00    8.52161000E-01 
S    1    1.000000
   3.25840000E-01    1.00000000E+00 
S    1    1.000000
   1.02741000E-01    1.00000000E+00 
S    1    1.000000
   3.60000000E-02    1.00000000E+00 
P    1    1.000000
   7.50000000E-01    1.00000000E+00 

[MO]
Sym=X
Ene=0.960896
Spin=Alpha
Occup=1
1    1.75909419e-09
2    -1.43003358e-08
3    1.31939401e-07
4    -3.58931148e-07
5    5.3051347e-06
6    2.06187056e-05
7    -1.21094508e-05
8    -2.18143955e-07
9    2.31988904e-06
10    -4.11591113e-17
11    -5.30879815e-05
12    -6.16340999e-06
13    -1.39165144e-05
14    5.19264014e-16
15    0.000679623393
16    0.00011298366
17    0.000300087673
18    4.18646493e-15
19    -0.00131269514
20    -0.000430592985
21    0.000449553512
22    -5.06163297e-14
23    -0.000694032091
24    -0.000221950566
25    -9.5802099e-05
26    1.09131258e-13
27    -1.73324187e-05
28    -5.78355394e-17
29    -2.36684462e-06
30    3.60401735e-16
31    1.22160708e-05
32    -7.56514874e-07
33    -3.03224139e-05
34    -1.11217386e-05
35    -0.000182618641
36    -7.1516936e-07
37    -2.58647611e-06
38    -2.64618062e-16
39    3.5305577e-06
40    2.29857201e-06
41    0.000179697914
42    0.000345425189
43    -6.82497398e-06
44    3.11195538e-06
45    -2.58741397e-16
46    -3.71965542e-06
47    -8.62897538e-05
48    -2.17537967e-05
49    -0.000165672102
50    4.6770778e-06
51    1.58265298e-05
52    4.70707021e-16
53    4.73403101e-10
54    1.61388535e-09
55    2.3438687e-08
56    2.14410057e-08
57    5.21674951e-07
58    1.89653436e-06
59    -6.21533092e-07
60    -3.23436991e-06
61    -7.50517977e-07
62    -1.14726147e-15
63    -1.05783661e-05
64    1.88011263e-05
65    2.09855192e-06
66    2.06033674e-15
67    0.00033545835
68    0.000360303519
69    -6.96201843e-05
70    -4.69653105e-15
71    0.00127332505
72    0.00109967918
73    4.51896555e-05
74    -1.97432445e-14
75    0.00131740254
76    0.000307593215
77    0.000436857017
78    -5.66234696e-14
79    4.7128861e-06
80    -2.53066786e-16
81    -5.27551823e-06
82    1.36310844e-16
83    -5.14535147e-07
84    1.11397242e-09
85    9.13579154e-09
86    3.99631405e-08
87    1.54846039e-07
88    2.33736212e-07
89    -2.17814119e-07
90    7.92411231e-07
91    1.14542263e-06
92    7.14617518e-07
93    2.9775624e-16
94    -1.51785691e-06
95    -2.5842353e-06
96    -1.74178346e-06
97    -2.12853926e-15
98    5.11317867e-05
99    2.72808118e-05
100    -1.91991341e-05
101    3.83286433e-15
102    0.000488795342
103    8.21979966e-05
104    -9.6748953e-05
105    -8.32259041e-15
106    0.00220741381
107    0.000319839299
108    -7.63660667e-05
109    1.95400295e-14
110    -1.72940688e-06
111    2.28108018e-17
112    -1.21484119e-06
113    -3.86619045e-16
114    -6.90257286e-07
115    1.07287359e-08
116    1.28622113e-07
117    3.67382495e-07
118    3.32915115e-06
119    1.5083746e-05
120    0.000188772203
121    -1.24795058e-05
122    -1.56970492e-05
123    -1.40737484e-05
124    1.50344575e-15
125    -0.000622711764
126    -0.000640315416
127    -0.000429729234
128    -1.11902415e-15
129    0.000555200236
130    -0.000224753025
131    -0.00024308858
132    5.86115042e-15
133    0.00191948174
134    0.00295881661
135    0.00104445543
136    -7.1370596e-14
137    -8.75524917e-05
138    0.000484858422
139    -0.000877115479
140    6.64560046e-14
141    -0.000366539749
142    2.87765543e-17
143    0.000113378402
144    7.57902362e-17
145    -0.000165656358
146    -0.00104321741
147    -0.00793579067
148    -0.0389111521
149    -0.132419071
150    -0.327730994
151    -0.156373333
152    -0.470647966
153    0.00168339382
154    0.00106120541
155    8.80786732e-18
156    -0.0057583023
157    -0.000805366829
158    -0.000503636462
159    2.38153099e-15
160    0.00152352878
161    7.84759181e-05
162    4.49059631e-05
163    -4.08773334e-15
164    -0.00291493979
165    0.000217339519
166    0.000190750343
167    1.49633939e-14
168    -0.00636564489
169    0.00116860748
170    0.000422894841
171    3.05967285e-15
172    0.000426843794
173    -2.35236285e-16
174    0.000118242376
175    -1.37388015e-16
176    0.000213806467
177    1.25683084e-09
178    -2.5984971e-08
179    1.25648177e-07
180    -5.70222749e-07
181    6.82346852e-06
182    2.70308084e-05
183    -1.89153129e-05
184    2.49952587e-05
185    -1.61347968e-06
186    -1.9488682e-16
187    -1.20785646e-05
188    -9.29694715e-05
189    1.53054881e-05
190    1.31112208e-15
191    -0.000315468605
192    0.000159417064
193    0.000267423123
194    -5.66162977e-15
195    -0.000210254522
196    0.000450254994
197    4.19092943e-05
198    2.9201839e-14
199    0.00205385122
200    0.00282087042
201    4.05506862e-05
202    2.47334593e-14
203    1.76143208e-05
204    -5.88396432e-16
205    1.09565756e-05
206    7.55042048e-17
207    -4.87196089e-05
208    1.97609688e-10
209    -4.43573006e-09
210    2.10978018e-08
211    -9.64130392e-08
212    1.10914601e-06
213    4.39304408e-06
214    -2.82918255e-06
215    -6.22575242e-08
216    -6.44614771e-07
217    -8.29297915e-16
218    -3.65737697e-06
219    -2.16215684e-06
220    2.72404626e-06
221    2.55545717e-15
222    -0.000149567145
223    -0.000131577946
224    -4.18166665e-05
225    -6.97532632e-15
226    -0.000744233507
227    -0.000299749927
228    -4.49104209e-05
229    2.91821126e-14
230    0.000144952736
231    -0.000294286234
232    0.0001447209
233    -1.33532456e-14
234    4.99688149e-06
235    -1.44613294e-16
236    -1.19088523e-06
237    -1.29314891e-16
238    2.18090316e-06
239    -6.56712187e-10
240    -2.3108978e-08
241    1.24319577e-08
242    -4.62177645e-07
243    3.30472692e-06
244    1.7422226e-05
245    -1.15455639e-05
246    1.00619094e-05
247    2.32729459e-05
248    -9.58650646e-16
249    -3.56721001e-06
250    -2.17519269e-05
251    -0.000130218986
252    4.20615493e-15
253    -0.00063123214
254    0.00047949354
255    -7.72301587e-05
256    -1.06464144e-14
257    0.0015063576
258    -0.00145020826
259    -0.00033110007
260    7.46328518e-14
261    -0.000801745074
262    -0.00032774074
263    -0.000124104829
264    -1.28918206e-13
265    -5.98797573e-05
266    1.38205364e-16
267    5.85371688e-06
268    3.02982267e-16
269    6.18353252e-05
270    -3.67795026e-06
271    -0.000138025356
272    -3.5084008e-05
273    0.000920689374
274    2.89661488e-05
275    -1.65177072e-05
276    1.40821689e-16
[5D]