[Molden Format]
[Atoms] (Angs)
  C      1    6     -0.00714236     -1.70213747     -0.00000000
  H      2    1     -2.06882847     -1.44022412      0.00000000
  H      3    1     -0.12337987     -2.77567521      0.00000000
  H      4    1      0.04651892      1.98813947     -0.00000000
  C      5    6     -1.21953563      0.40211669      0.00000000
  O      6    8     -2.25921553      1.03043814      0.00000000
  C      7    6      1.28797806      0.34644937     -0.00000000
  O      8    8      2.31273661      1.00537216     -0.00000000
  N      9    7      0.03446295      0.97739857     -0.00000000
  N     10    7     -1.17287765     -0.98229824      0.00000000
  C     11    6      1.20107039     -1.10433419     -0.00000000
  H     12    1      2.11220096     -1.67699125     -0.00000000
[GTO]
1    0
S    1    1.000000
   4.56324000E+03    1.96665000E-03 
S    1    1.000000
   6.82024000E+02    1.52306000E-02 
S    1    1.000000
   1.54973000E+02    7.61269000E-02 
S    1    1.000000
   4.44553000E+01    2.60801000E-01 
S    1    1.000000
   1.30290000E+01    6.16462000E-01 
S    1    1.000000
   1.82773000E+00    2.21006000E-01 
SP   3    1.000000
   2.09642000E+01    1.14660000E-01   4.02487000E-02 
   4.80331000E+00    9.19999000E-01   2.37594000E-01 
   1.45933000E+00   -3.03068000E-03   8.15854000E-01 
SP   1    1.000000
   4.83456000E-01    1.00000000E+00   1.00000000E+00 
SP   1    1.000000
   1.45585000E-01    1.00000000E+00   1.00000000E+00 
SP   1    1.000000
   4.38000000E-02    1.00000000E+00   1.00000000E+00 
SP   1    1.000000
   1.31927711E-02    1.00000000E+00   1.00000000E+00 
D    1    1.000000
   6.26000000E-01    1.00000000E+00 

2    0
S    3    1.000000
   3.38650000E+01    2.54938000E-02 
   5.09479000E+00    1.90373000E-01 
   1.15879000E+00    8.52161000E-01 
S    1    1.000000
   3.25840000E-01    1.00000000E+00 
S    1    1.000000
   1.02741000E-01    1.00000000E+00 
S    1    1.000000
   3.60000000E-02    1.00000000E+00 
P    1    1.000000
   7.50000000E-01    1.00000000E+00 

3    0
S    3    1.000000
   3.38650000E+01    2.54938000E-02 
   5.09479000E+00    1.90373000E-01 
   1.15879000E+00    8.52161000E-01 
S    1    1.000000
   3.25840000E-01    1.00000000E+00 
S    1    1.000000
   1.02741000E-01    1.00000000E+00 
S    1    1.000000
   3.60000000E-02    1.00000000E+00 
P    1    1.000000
   7.50000000E-01    1.00000000E+00 

4    0
S    3    1.000000
   3.38650000E+01    2.54938000E-02 
   5.09479000E+00    1.90373000E-01 
   1.15879000E+00    8.52161000E-01 
S    1    1.000000
   3.25840000E-01    1.00000000E+00 
S    1    1.000000
   1.02741000E-01    1.00000000E+00 
S    1    1.000000
   3.60000000E-02    1.00000000E+00 
P    1    1.000000
   7.50000000E-01    1.00000000E+00 

5    0
S    1    1.000000
   4.56324000E+03    1.96665000E-03 
S    1    1.000000
   6.82024000E+02    1.52306000E-02 
S    1    1.000000
   1.54973000E+02    7.61269000E-02 
S    1    1.000000
   4.44553000E+01    2.60801000E-01 
S    1    1.000000
   1.30290000E+01    6.16462000E-01 
S    1    1.000000
   1.82773000E+00    2.21006000E-01 
SP   3    1.000000
   2.09642000E+01    1.14660000E-01   4.02487000E-02 
   4.80331000E+00    9.19999000E-01   2.37594000E-01 
   1.45933000E+00   -3.03068000E-03   8.15854000E-01 
SP   1    1.000000
   4.83456000E-01    1.00000000E+00   1.00000000E+00 
SP   1    1.000000
   1.45585000E-01    1.00000000E+00   1.00000000E+00 
SP   1    1.000000
   4.38000000E-02    1.00000000E+00   1.00000000E+00 
SP   1    1.000000
   1.31927711E-02    1.00000000E+00   1.00000000E+00 
D    1    1.000000
   6.26000000E-01    1.00000000E+00 

6    0
S    1    1.000000
   8.58850000E+03    1.89515000E-03 
S    1    1.000000
   1.29723000E+03    1.43859000E-02 
S    1    1.000000
   2.99296000E+02    7.07320000E-02 
S    1    1.000000
   8.73771000E+01    2.40001000E-01 
S    1    1.000000
   2.56789000E+01    5.94797000E-01 
S    1    1.000000
   3.74004000E+00    2.80802000E-01 
SP   3    1.000000
   4.21175000E+01    1.13889000E-01   3.65114000E-02 
   9.62837000E+00    9.20811000E-01   2.37153000E-01 
   2.85332000E+00   -3.27447000E-03   8.19702000E-01 
SP   1    1.000000
   9.05661000E-01    1.00000000E+00   1.00000000E+00 
SP   1    1.000000
   2.55611000E-01    1.00000000E+00   1.00000000E+00 
SP   1    1.000000
   8.45000000E-02    1.00000000E+00   1.00000000E+00 
SP   1    1.000000
   2.54518072E-02    1.00000000E+00   1.00000000E+00 
D    1    1.000000
   1.29200000E+00    1.00000000E+00 

7    0
S    1    1.000000
   4.56324000E+03    1.96665000E-03 
S    1    1.000000
   6.82024000E+02    1.52306000E-02 
S    1    1.000000
   1.54973000E+02    7.61269000E-02 
S    1    1.000000
   4.44553000E+01    2.60801000E-01 
S    1    1.000000
   1.30290000E+01    6.16462000E-01 
S    1    1.000000
   1.82773000E+00    2.21006000E-01 
SP   3    1.000000
   2.09642000E+01    1.14660000E-01   4.02487000E-02 
   4.80331000E+00    9.19999000E-01   2.37594000E-01 
   1.45933000E+00   -3.03068000E-03   8.15854000E-01 
SP   1    1.000000
   4.83456000E-01    1.00000000E+00   1.00000000E+00 
SP   1    1.000000
   1.45585000E-01    1.00000000E+00   1.00000000E+00 
SP   1    1.000000
   4.38000000E-02    1.00000000E+00   1.00000000E+00 
SP   1    1.000000
   1.31927711E-02    1.00000000E+00   1.00000000E+00 
D    1    1.000000
   6.26000000E-01    1.00000000E+00 

8    0
S    1    1.000000
   8.58850000E+03    1.89515000E-03 
S    1    1.000000
   1.29723000E+03    1.43859000E-02 
S    1    1.000000
   2.99296000E+02    7.07320000E-02 
S    1    1.000000
   8.73771000E+01    2.40001000E-01 
S    1    1.000000
   2.56789000E+01    5.94797000E-01 
S    1    1.000000
   3.74004000E+00    2.80802000E-01 
SP   3    1.000000
   4.21175000E+01    1.13889000E-01   3.65114000E-02 
   9.62837000E+00    9.20811000E-01   2.37153000E-01 
   2.85332000E+00   -3.27447000E-03   8.19702000E-01 
SP   1    1.000000
   9.05661000E-01    1.00000000E+00   1.00000000E+00 
SP   1    1.000000
   2.55611000E-01    1.00000000E+00   1.00000000E+00 
SP   1    1.000000
   8.45000000E-02    1.00000000E+00   1.00000000E+00 
SP   1    1.000000
   2.54518072E-02    1.00000000E+00   1.00000000E+00 
D    1    1.000000
   1.29200000E+00    1.00000000E+00 

9    0
S    1    1.000000
   6.29348000E+03    1.96979000E-03 
S    1    1.000000
   9.49044000E+02    1.49613000E-02 
S    1    1.000000
   2.18776000E+02    7.35006000E-02 
S    1    1.000000
   6.36916000E+01    2.48937000E-01 
S    1    1.000000
   1.88282000E+01    6.02460000E-01 
S    1    1.000000
   2.72023000E+00    2.56202000E-01 
SP   3    1.000000
   3.06331000E+01    1.11906000E-01   3.83119000E-02 
   7.02614000E+00    9.21666000E-01   2.37403000E-01 
   2.11205000E+00   -2.56919000E-03   8.17592000E-01 
SP   1    1.000000
   6.84009000E-01    1.00000000E+00   1.00000000E+00 
SP   1    1.000000
   2.00878000E-01    1.00000000E+00   1.00000000E+00 
SP   1    1.000000
   6.39000000E-02    1.00000000E+00   1.00000000E+00 
SP   1    1.000000
   1.92469880E-02    1.00000000E+00   1.00000000E+00 
D    1    1.000000
   9.13000000E-01    1.00000000E+00 

10    0
S    1    1.000000
   6.29348000E+03    1.96979000E-03 
S    1    1.000000
   9.49044000E+02    1.49613000E-02 
S    1    1.000000
   2.18776000E+02    7.35006000E-02 
S    1    1.000000
   6.36916000E+01    2.48937000E-01 
S    1    1.000000
   1.88282000E+01    6.02460000E-01 
S    1    1.000000
   2.72023000E+00    2.56202000E-01 
SP   3    1.000000
   3.06331000E+01    1.11906000E-01   3.83119000E-02 
   7.02614000E+00    9.21666000E-01   2.37403000E-01 
   2.11205000E+00   -2.56919000E-03   8.17592000E-01 
SP   1    1.000000
   6.84009000E-01    1.00000000E+00   1.00000000E+00 
SP   1    1.000000
   2.00878000E-01    1.00000000E+00   1.00000000E+00 
SP   1    1.000000
   6.39000000E-02    1.00000000E+00   1.00000000E+00 
SP   1    1.000000
   1.92469880E-02    1.00000000E+00   1.00000000E+00 
D    1    1.000000
   9.13000000E-01    1.00000000E+00 

11    0
S    1    1.000000
   4.56324000E+03    1.96665000E-03 
S    1    1.000000
   6.82024000E+02    1.52306000E-02 
S    1    1.000000
   1.54973000E+02    7.61269000E-02 
S    1    1.000000
   4.44553000E+01    2.60801000E-01 
S    1    1.000000
   1.30290000E+01    6.16462000E-01 
S    1    1.000000
   1.82773000E+00    2.21006000E-01 
SP   3    1.000000
   2.09642000E+01    1.14660000E-01   4.02487000E-02 
   4.80331000E+00    9.19999000E-01   2.37594000E-01 
   1.45933000E+00   -3.03068000E-03   8.15854000E-01 
SP   1    1.000000
   4.83456000E-01    1.00000000E+00   1.00000000E+00 
SP   1    1.000000
   1.45585000E-01    1.00000000E+00   1.00000000E+00 
SP   1    1.000000
   4.38000000E-02    1.00000000E+00   1.00000000E+00 
SP   1    1.000000
   1.31927711E-02    1.00000000E+00   1.00000000E+00 
D    1    1.000000
   6.26000000E-01    1.00000000E+00 

12    0
S    3    1.000000
   3.38650000E+01    2.54938000E-02 
   5.09479000E+00    1.90373000E-01 
   1.15879000E+00    8.52161000E-01 
S    1    1.000000
   3.25840000E-01    1.00000000E+00 
S    1    1.000000
   1.02741000E-01    1.00000000E+00 
S    1    1.000000
   3.60000000E-02    1.00000000E+00 
P    1    1.000000
   7.50000000E-01    1.00000000E+00 

[MO]
Sym=X
Ene=0.004865
Spin=Alpha
Occup=1
1    -1.75919404e-09
2    1.43005795e-08
3    -1.31945662e-07
4    3.58939141e-07
5    -5.30534653e-06
6    -2.06195535e-05
7    1.21098797e-05
8    2.18368192e-07
9    -2.31997579e-06
10    7.35383799e-16
11    5.30904252e-05
12    6.16119599e-06
13    1.3917263e-05
14    6.45801584e-16
15    -0.000679641224
16    -0.000112986966
17    -0.000300106057
18    -3.0256459e-15
19    0.00131233187
20    0.000430594367
21    -0.000449704119
22    5.15185827e-14
23    0.000693992
24    0.000221921187
25    9.5826633e-05
26    -1.0792954e-13
27    1.73314239e-05
28    -6.77392555e-17
29    2.36717146e-06
30    -3.00149018e-16
31    -1.22167056e-05
32    7.57392195e-07
33    3.03207385e-05
34    1.11173023e-05
35    0.000182630011
36    7.15573068e-07
37    2.58541611e-06
38    4.117776e-16
39    -3.53038601e-06
40    -2.30110835e-06
41    -0.000179711686
42    -0.000345518661
43    6.82483615e-06
44    -3.11242672e-06
45    7.90276438e-16
46    3.72037784e-06
47    8.62897467e-05
48    2.17420045e-05
49    0.000165686935
50    -4.6760559e-06
51    -1.58264999e-05
52    -1.40509877e-15
53    -4.74539281e-10
54    -1.62956852e-09
55    -2.34753517e-08
56    -2.1835201e-08
57    -5.22693362e-07
58    -1.91237776e-06
59    6.20064191e-07
60    3.2304465e-06
61    7.53088814e-07
62    4.17782457e-19
63    1.06353582e-05
64    -1.88593981e-05
65    -2.06325501e-06
66    -4.18424128e-15
67    -0.000335570032
68    -0.000360242893
69    6.95807357e-05
70    2.29464575e-15
71    -0.00127359217
72    -0.00109933383
73    -4.54077971e-05
74    1.88335666e-14
75    -0.00131722129
76    -0.000307578265
77    -0.000436826922
78    5.74085349e-14
79    -4.74435004e-06
80    -3.94922414e-16
81    5.26526371e-06
82    -2.35489812e-16
83    5.30483934e-07
84    1.27451157e-07
85    9.6887175e-07
86    4.75552e-06
87    1.6165474e-05
88    4.01599759e-05
89    1.93680509e-05
90    5.72558652e-05
91    -9.38942899e-07
92    -8.33251045e-07
93    -1.01416541e-15
94    2.12190378e-06
95    2.48657796e-06
96    1.79778742e-06
97    8.19123708e-16
98    -5.12048869e-05
99    -2.72265482e-05
100    1.91688269e-05
101    -5.80976252e-15
102    -0.000488386941
103    -8.2169919e-05
104    9.67298745e-05
105    6.52674991e-15
106    -0.00220645842
107    -0.000319662091
108    7.62794969e-05
109    -1.97616731e-14
110    1.74072045e-06
111    7.98032655e-17
112    1.20375098e-06
113    1.18389745e-16
114    6.83620531e-07
115    -1.07288468e-08
116    -1.28621847e-07
117    -3.67389396e-07
118    -3.32914224e-06
119    -1.50839743e-05
120    -0.000188773088
121    1.24799608e-05
122    1.56973247e-05
123    1.40738175e-05
124    -2.05828346e-15
125    0.000622714043
126    0.000640313873
127    0.000429729644
128    1.15043471e-16
129    -0.000555191797
130    0.000224783457
131    0.000243109008
132    -6.91553414e-15
133    -0.00191972468
134    -0.0029586705
135    -0.00104440099
136    7.1296132e-14
137    8.74982285e-05
138    -0.000484835115
139    0.000877081825
140    -6.54307124e-14
141    0.000366540209
142    -4.09173383e-16
143    -0.000113378465
144    4.03939849e-16
145    0.000165657068
146    0.0010432174
147    0.00793579061
148    0.0389111518
149    0.13241907
150    0.327730992
151    0.156373332
152    0.470647963
153    -0.00168339359
154    -0.00106120542
155    -9.39147369e-17
156    0.00575830376
157    0.000805366086
158    0.000503636406
159    -2.60830897e-15
160    -0.00152354083
161    -7.84686e-05
162    -4.49027728e-05
163    3.60306592e-15
164    0.0029148812
165    -0.00021733463
166    -0.000190741186
167    -1.53439479e-14
168    0.00636533649
169    -0.00116855814
170    -0.000422884664
171    -2.53408986e-15
172    -0.000426844002
173    2.39867602e-16
174    -0.000118242217
175    2.3628873e-16
176    -0.000213806521
177    -1.25695384e-09
178    2.59885791e-08
179    -1.25662813e-07
180    5.70300188e-07
181    -6.82433781e-06
182    -2.7034397e-05
183    1.89177897e-05
184    -2.49931357e-05
185    1.61333985e-06
186    -1.04513753e-15
187    1.20835697e-05
188    9.29622748e-05
189    -1.53056693e-05
190    -3.4720617e-15
191    0.00031547143
192    -0.000159416006
193    -0.000267425021
194    2.96489053e-15
195    0.000210279415
196    -0.000450261961
197    -4.18836302e-05
198    -3.07325309e-14
199    -0.00205403682
200    -0.00282056924
201    -4.05583509e-05
202    -2.42967539e-14
203    -1.76137064e-05
204    6.05730166e-16
205    -1.09571586e-05
206    8.50635022e-17
207    4.87236921e-05
208    -1.97781212e-10
209    4.43928537e-09
210    -2.11149798e-08
211    9.64907897e-08
212    -1.11008486e-06
213    -4.39686739e-06
214    2.83178532e-06
215    6.33667202e-08
216    6.42754741e-07
217    1.02244744e-15
218    3.66323657e-06
219    2.15913067e-06
220    -2.7174803e-06
221    -2.32990123e-15
222    0.000149564274
223    0.000131578096
224    4.18133183e-05
225    6.91362885e-15
226    0.000744254221
227    0.000299739665
228    4.49067153e-05
229    -2.93238138e-14
230    -0.000145187209
231    0.000294332694
232    -0.000144815116
233    1.41319873e-14
234    -4.99950982e-06
235    -2.57032092e-16
236    1.19037104e-06
237    2.53418065e-16
238    -2.18390381e-06
239    6.5671672e-10
240    2.31090114e-08
241    -1.24317711e-08
242    4.62177816e-07
243    -3.3047352e-06
244    -1.74223663e-05
245    1.15456001e-05
246    -1.00617494e-05
247    -2.32729536e-05
248    1.25668653e-15
249    3.5672094e-06
250    2.17502171e-05
251    0.000130219149
252    -3.66101799e-15
253    0.000631262051
254    -0.00047951188
255    7.72403803e-05
256    1.1286825e-14
257    -0.00150596259
258    0.00145011506
259    0.000331153851
260    -7.38758528e-14
261    0.000801728133
262    0.000327726102
263    0.000124069854
264    1.30125337e-13
265    5.98805e-05
266    -5.86821922e-16
267    -5.85354641e-06
268    -4.72195529e-16
269    -6.18353009e-05
270    3.67802891e-06
271    0.000138028493
272    3.50910585e-05
273    -0.000920679215
274    -2.89666203e-05
275    1.65180243e-05
276    1.35635446e-16
[5D]