                  Welcome to Q-Chem
     A Quantum Leap Into The Future Of Chemistry


 Q-Chem 5.2 (devel), Q-Chem, Inc., Pleasanton, CA (2019)

 Yihan Shao,  Zhengting Gan,  E. Epifanovsky,  A. T. B. Gilbert,  M. Wormit,  
 J. Kussmann,  A. W. Lange,  A. Behn,  Jia Deng,  Xintian Feng,  D. Ghosh,  
 M. Goldey,  P. R. Horn,  L. D. Jacobson,  I. Kaliman,  T. Kus,  A. Landau,  
 Jie Liu,  E. I. Proynov,  R. M. Richard,  R. P. Steele,  E. J. Sundstrom,  
 H. L. Woodcock III,  P. M. Zimmerman,  D. Zuev,  B. Albrecht,  E. Alguire,  
 S. A. Baeppler,  D. Barton,  Z. Benda,  Y. A. Bernard,  E. J. Berquist,  
 K. B. Bravaya,  H. Burton,  D. Casanova,  Chun-Min Chang,  Yunqing Chen,  
 A. Chien,  K. D. Closser,  M. P. Coons,  S. Coriani,  S. Dasgupta,  
 A. L. Dempwolff,  M. Diedenhofen,  Hainam Do,  R. G. Edgar,  Po-Tung Fang,  
 S. Faraji,  S. Fatehi,  Qingguo Feng,  K. D. Fenk,  J. Fosso-Tande,  
 J. Gayvert,  Qinghui Ge,  A. Ghysels,  G. Gidofalvi,  J. Gomes,  
 J. Gonthier,  A. Gunina,  D. Hait,  M. W. D. Hanson-Heine,  
 P. H. P. Harbach,  A. W. Hauser,  M. F. Herbst,  J. E. Herr,  
 E. G. Hohenstein,  Z. C. Holden,  Kerwin Hui,  B. C. Huynh,  T.-C. Jagau,  
 Hyunjun Ji,  B. Kaduk,  K. Khistyaev,  Jaehoon Kim,  P. Klunzinger,  K. Koh,  
 D. Kosenkov,  L. Koulias,  T. Kowalczyk,  C. M. Krauter,  A. Kunitsa,  
 Ka Un Lao,  A. Laurent,  K. V. Lawler,  Joonho Lee,  D. Lefrancois,  
 S. Lehtola,  D. S. Levine,  Yi-Pei Li,  You-Sheng Lin,  Fenglai Liu,  
 E. Livshits,  A. Luenser,  P. Manohar,  E. Mansoor,  S. F. Manzer,  
 Shan-Ping Mao,  Yuezhi Mao,  N. Mardirossian,  A. V. Marenich,  
 T. Markovich,  L. A. Martinez-Martinez,  S. A. Maurer,  N. J. Mayhall,  
 S. C. McKenzie,  J.-M. Mewes,  P. Morgante,  A. F. Morrison,  
 J. W. Mullinax,  K. Nanda,  T. S. Nguyen-Beck,  R. Olivares-Amaya,  
 J. A. Parkhill,  Zheng Pei,  T. M. Perrine,  F. Plasser,  P. Pokhilko,  
 S. Prager,  A. Prociuk,  E. Ramos,  D. R. Rehn,  F. Rob,  M. Scheurer,  
 M. Schneider,  N. Sergueev,  S. M. Sharada,  S. Sharma,  D. W. Small,  
 T. Stauch,  T. Stein,  Yu-Chuan Su,  A. J. W. Thom,  A. Tkatchenko,  
 T. Tsuchimochi,  N. M. Tubman,  L. Vogt,  M. L. Vidal,  O. Vydrov,  
 M. A. Watson,  J. Wenzel,  M. de Wergifosse,  T. A. Wesolowski,  A. White,  
 J. Witte,  A. Yamada,  Jun Yang,  K. Yao,  S. Yeganeh,  S. R. Yost,  
 Zhi-Qiang You,  A. Zech,  Igor Ying Zhang,  Xing Zhang,  Yan Zhao,  
 Ying Zhu,  B. R. Brooks,  G. K. L. Chan,  C. J. Cramer,  M. S. Gordon,  
 W. J. Hehre,  A. Klamt,  M. W. Schmidt,  C. D. Sherrill,  D. G. Truhlar,  
 A. Aspuru-Guzik,  R. Baer,  A. T. Bell,  N. A. Besley,  Jeng-Da Chai,  
 A. E. DePrince, III,  R. A. DiStasio Jr.,  A. Dreuw,  B. D. Dunietz,  
 T. R. Furlani,  Chao-Ping Hsu,  Yousung Jung,  Jing Kong,  D. S. Lambrecht,  
 WanZhen Liang,  C. Ochsenfeld,  V. A. Rassolov,  L. V. Slipchenko,  
 J. E. Subotnik,  T. Van Voorhis,  J. M. Herbert,  A. I. Krylov,  
 P. M. W. Gill,  M. Head-Gordon

 Contributors to earlier versions of Q-Chem not listed above: 
 R. D. Adamson,  B. Austin,  J. Baker,  G. J. O. Beran,  K. Brandhorst,  
 S. T. Brown,  E. F. C. Byrd,  A. K. Chakraborty,  C.-L. Cheng,  
 Siu Hung Chien,  D. M. Chipman,  D. L. Crittenden,  H. Dachsel,  
 R. J. Doerksen,  A. D. Dutoi,  L. Fusti-Molnar,  W. A. Goddard III,  
 A. Golubeva-Zadorozhnaya,  S. R. Gwaltney,  G. Hawkins,  A. Heyden,  
 S. Hirata,  G. Kedziora,  F. J. Keil,  C. Kelley,  Jihan Kim,  R. A. King,  
 R. Z. Khaliullin,  P. P. Korambath,  W. Kurlancheek,  A. M. Lee,  M. S. Lee,  
 S. V. Levchenko,  Ching Yeh Lin,  D. Liotard,  R. C. Lochan,  I. Lotan,  
 P. E. Maslen,  N. Nair,  D. P. O'Neill,  D. Neuhauser,  E. Neuscamman,  
 C. M. Oana,  R. Olson,  B. Peters,  R. Peverati,  P. A. Pieniazek,  
 Y. M. Rhee,  J. Ritchie,  M. A. Rohrdanz,  E. Rosta,  N. J. Russ,  
 H. F. Schaefer III,  N. E. Schultz,  N. Shenvi,  A. C. Simmonett,  A. Sodt,  
 D. Stuck,  K. S. Thanthiriwatte,  V. Vanovschi,  Tao Wang,  A. Warshel,  
 C. F. Williams,  Q. Wu,  X. Xu,  W. Zhang

 Please cite Q-Chem as follows:
 Y. Shao et al., Mol. Phys. 113, 184-215 (2015)
 DOI: 10.1080/00268976.2014.952696

 Q-Chem 5.2.0 for Intel X86 EM64T Linux

 Parts of Q-Chem use Armadillo 8.300.2 (Tropical Shenanigans).
 http://arma.sourceforge.net/

 Q-Chem begins on Mon Jun  3 18:05:19 2019  

n-62-29-32
Host: 0

     Scratch files written to /work1/malop/qc_8382783.hnode2/qchem13523//
NAlpha2: 58
NElect   58
Mult     1

Checking the input file for inconsistencies... 	...done.

--------------------------------------------------------------
User input:
--------------------------------------------------------------
$comment
Uracil XPS C K-edge 6-311(2+,+)G** (ucC)
geometry optimizion: mp2/cc-pvtz
$end

$molecule
0 1
C        0.052842   -1.701332    0.000000
H       -2.016793   -1.512231    0.000000
H       -0.025494   -2.778299    0.000000
H       -0.023568    1.988544    0.000000
C       -1.232948    0.358893    0.000000
O       -2.294123    0.950188    0.000000
C        1.274970    0.391620    0.000000
O        2.275873    1.086244    0.000000
N        0.000000    0.978006    0.000000
N       -1.137535   -1.023018    0.000000
C        1.239239   -1.061325    0.000000
H        2.169983   -1.601520    0.000000
$end

$rem
   JOB_TYPE  =  SP
   BASIS  = general
   print_general_basis = true
   METHOD  =  EOM-CCSD
   CVS_IP_STATES = [12,4]
   EE_STATES = [3,3]
   eom_davidson_convergence = 4
   cvs_eom_shift = 18500
   n_frozen_core = 2
   cc_trans_prop = true
   cc_memory = 40000
   cc_do_dyson = true
   MOLDEN_FORMAT = TRUE
$end

$basis
H    0
6-311(2+,+)G**
****
O    0
S    1    1.000000
   8.58850000E+03    1.89515000E-03
S    1    1.000000
   1.29723000E+03    1.43859000E-02
S    1    1.000000
   2.99296000E+02    7.07320000E-02
S    1    1.000000
   8.73771000E+01    2.40001000E-01
S    1    1.000000
   2.56789000E+01    5.94797000E-01
S    1    1.000000
   3.74004000E+00    2.80802000E-01
SP   3    1.000000
   4.21175000E+01    1.13889000E-01   3.65114000E-02
   9.62837000E+00    9.20811000E-01   2.37153000E-01
   2.85332000E+00   -3.27447000E-03   8.19702000E-01
SP   1    1.000000
   9.05661000E-01    1.00000000E+00   1.00000000E+00
SP   1    1.000000
   2.55611000E-01    1.00000000E+00   1.00000000E+00
SP   1    1.000000
   8.45000000E-02    1.00000000E+00   1.00000000E+00
SP   1    1.000000
   2.54518072E-02    1.00000000E+00   1.00000000E+00
D    1    1.000000
   1.29200000E+00    1.00000000E+00
****
N    0
S    1    1.000000
   6.29348000E+03    1.96979000E-03
S    1    1.000000
   9.49044000E+02    1.49613000E-02
S    1    1.000000
   2.18776000E+02    7.35006000E-02
S    1    1.000000
   6.36916000E+01    2.48937000E-01
S    1    1.000000
   1.88282000E+01    6.02460000E-01
S    1    1.000000
   2.72023000E+00    2.56202000E-01
SP   3    1.000000
   3.06331000E+01    1.11906000E-01   3.83119000E-02
   7.02614000E+00    9.21666000E-01   2.37403000E-01
   2.11205000E+00   -2.56919000E-03   8.17592000E-01
SP   1    1.000000
   6.84009000E-01    1.00000000E+00   1.00000000E+00
SP   1    1.000000
   2.00878000E-01    1.00000000E+00   1.00000000E+00
SP   1    1.000000
   6.39000000E-02    1.00000000E+00   1.00000000E+00
SP   1    1.000000
   1.92469880E-02    1.00000000E+00   1.00000000E+00
D    1    1.000000
   9.13000000E-01    1.00000000E+00
****
C    0
S    1    1.000000
   4.56324000E+03    1.96665000E-03
S    1    1.000000
   6.82024000E+02    1.52306000E-02
S    1    1.000000
   1.54973000E+02    7.61269000E-02
S    1    1.000000
   4.44553000E+01    2.60801000E-01
S    1    1.000000
   1.30290000E+01    6.16462000E-01
S    1    1.000000
   1.82773000E+00    2.21006000E-01
SP   3    1.000000
   2.09642000E+01    1.14660000E-01   4.02487000E-02
   4.80331000E+00    9.19999000E-01   2.37594000E-01
   1.45933000E+00   -3.03068000E-03   8.15854000E-01
SP   1    1.000000
   4.83456000E-01    1.00000000E+00   1.00000000E+00
SP   1    1.000000
   1.45585000E-01    1.00000000E+00   1.00000000E+00
SP   1    1.000000
   4.38000000E-02    1.00000000E+00   1.00000000E+00
SP   1    1.000000
   1.31927711E-02    1.00000000E+00   1.00000000E+00
D    1    1.000000
   6.26000000E-01    1.00000000E+00
****
$end
--------------------------------------------------------------
 ----------------------------------------------------------------
             Standard Nuclear Orientation (Angstroms)
    I     Atom           X                Y                Z
 ----------------------------------------------------------------
    1      C      -0.0071423615    -1.7021374661    -0.0000000000
    2      H      -2.0688284730    -1.4402241233     0.0000000000
    3      H      -0.1233798667    -2.7756752113     0.0000000000
    4      H       0.0465189185     1.9881394681    -0.0000000000
    5      C      -1.2195356258     0.4021166886     0.0000000000
    6      O      -2.2592155329     1.0304381418     0.0000000000
    7      C       1.2879780632     0.3464493659    -0.0000000000
    8      O       2.3127366072     1.0053721559    -0.0000000000
    9      N       0.0344629504     0.9773985746    -0.0000000000
   10      N      -1.1728776526    -0.9822982369     0.0000000000
   11      C       1.2010703878    -1.1043341925    -0.0000000000
   12      H       2.1122009607    -1.6769912546    -0.0000000000
 ----------------------------------------------------------------
 Molecular Point Group                 Cs    NOp =  2
 Largest Abelian Subgroup              Cs    NOp =  2
 Nuclear Repulsion Energy =         357.01163035 hartrees
 There are       29 alpha and       29 beta electrons
 Requested basis set is non-standard
Basis set in general basis input format:
-----------------------------------------------------------------------
$basis
C    0
S    1    1.000000
   4.56324000E+03    1.96665000E-03 
S    1    1.000000
   6.82024000E+02    1.52306000E-02 
S    1    1.000000
   1.54973000E+02    7.61269000E-02 
S    1    1.000000
   4.44553000E+01    2.60801000E-01 
S    1    1.000000
   1.30290000E+01    6.16462000E-01 
S    1    1.000000
   1.82773000E+00    2.21006000E-01 
SP   3    1.000000
   2.09642000E+01    1.14660000E-01   4.02487000E-02 
   4.80331000E+00    9.19999000E-01   2.37594000E-01 
   1.45933000E+00   -3.03068000E-03   8.15854000E-01 
SP   1    1.000000
   4.83456000E-01    1.00000000E+00   1.00000000E+00 
SP   1    1.000000
   1.45585000E-01    1.00000000E+00   1.00000000E+00 
SP   1    1.000000
   4.38000000E-02    1.00000000E+00   1.00000000E+00 
SP   1    1.000000
   1.31927711E-02    1.00000000E+00   1.00000000E+00 
D    1    1.000000
   6.26000000E-01    1.00000000E+00 
****
H    0
S    3    1.000000
   3.38650000E+01    2.54938000E-02 
   5.09479000E+00    1.90373000E-01 
   1.15879000E+00    8.52161000E-01 
S    1    1.000000
   3.25840000E-01    1.00000000E+00 
S    1    1.000000
   1.02741000E-01    1.00000000E+00 
S    1    1.000000
   3.60000000E-02    1.00000000E+00 
P    1    1.000000
   7.50000000E-01    1.00000000E+00 
****
H    0
S    3    1.000000
   3.38650000E+01    2.54938000E-02 
   5.09479000E+00    1.90373000E-01 
   1.15879000E+00    8.52161000E-01 
S    1    1.000000
   3.25840000E-01    1.00000000E+00 
S    1    1.000000
   1.02741000E-01    1.00000000E+00 
S    1    1.000000
   3.60000000E-02    1.00000000E+00 
P    1    1.000000
   7.50000000E-01    1.00000000E+00 
****
H    0
S    3    1.000000
   3.38650000E+01    2.54938000E-02 
   5.09479000E+00    1.90373000E-01 
   1.15879000E+00    8.52161000E-01 
S    1    1.000000
   3.25840000E-01    1.00000000E+00 
S    1    1.000000
   1.02741000E-01    1.00000000E+00 
S    1    1.000000
   3.60000000E-02    1.00000000E+00 
P    1    1.000000
   7.50000000E-01    1.00000000E+00 
****
C    0
S    1    1.000000
   4.56324000E+03    1.96665000E-03 
S    1    1.000000
   6.82024000E+02    1.52306000E-02 
S    1    1.000000
   1.54973000E+02    7.61269000E-02 
S    1    1.000000
   4.44553000E+01    2.60801000E-01 
S    1    1.000000
   1.30290000E+01    6.16462000E-01 
S    1    1.000000
   1.82773000E+00    2.21006000E-01 
SP   3    1.000000
   2.09642000E+01    1.14660000E-01   4.02487000E-02 
   4.80331000E+00    9.19999000E-01   2.37594000E-01 
   1.45933000E+00   -3.03068000E-03   8.15854000E-01 
SP   1    1.000000
   4.83456000E-01    1.00000000E+00   1.00000000E+00 
SP   1    1.000000
   1.45585000E-01    1.00000000E+00   1.00000000E+00 
SP   1    1.000000
   4.38000000E-02    1.00000000E+00   1.00000000E+00 
SP   1    1.000000
   1.31927711E-02    1.00000000E+00   1.00000000E+00 
D    1    1.000000
   6.26000000E-01    1.00000000E+00 
****
O    0
S    1    1.000000
   8.58850000E+03    1.89515000E-03 
S    1    1.000000
   1.29723000E+03    1.43859000E-02 
S    1    1.000000
   2.99296000E+02    7.07320000E-02 
S    1    1.000000
   8.73771000E+01    2.40001000E-01 
S    1    1.000000
   2.56789000E+01    5.94797000E-01 
S    1    1.000000
   3.74004000E+00    2.80802000E-01 
SP   3    1.000000
   4.21175000E+01    1.13889000E-01   3.65114000E-02 
   9.62837000E+00    9.20811000E-01   2.37153000E-01 
   2.85332000E+00   -3.27447000E-03   8.19702000E-01 
SP   1    1.000000
   9.05661000E-01    1.00000000E+00   1.00000000E+00 
SP   1    1.000000
   2.55611000E-01    1.00000000E+00   1.00000000E+00 
SP   1    1.000000
   8.45000000E-02    1.00000000E+00   1.00000000E+00 
SP   1    1.000000
   2.54518072E-02    1.00000000E+00   1.00000000E+00 
D    1    1.000000
   1.29200000E+00    1.00000000E+00 
****
C    0
S    1    1.000000
   4.56324000E+03    1.96665000E-03 
S    1    1.000000
   6.82024000E+02    1.52306000E-02 
S    1    1.000000
   1.54973000E+02    7.61269000E-02 
S    1    1.000000
   4.44553000E+01    2.60801000E-01 
S    1    1.000000
   1.30290000E+01    6.16462000E-01 
S    1    1.000000
   1.82773000E+00    2.21006000E-01 
SP   3    1.000000
   2.09642000E+01    1.14660000E-01   4.02487000E-02 
   4.80331000E+00    9.19999000E-01   2.37594000E-01 
   1.45933000E+00   -3.03068000E-03   8.15854000E-01 
SP   1    1.000000
   4.83456000E-01    1.00000000E+00   1.00000000E+00 
SP   1    1.000000
   1.45585000E-01    1.00000000E+00   1.00000000E+00 
SP   1    1.000000
   4.38000000E-02    1.00000000E+00   1.00000000E+00 
SP   1    1.000000
   1.31927711E-02    1.00000000E+00   1.00000000E+00 
D    1    1.000000
   6.26000000E-01    1.00000000E+00 
****
O    0
S    1    1.000000
   8.58850000E+03    1.89515000E-03 
S    1    1.000000
   1.29723000E+03    1.43859000E-02 
S    1    1.000000
   2.99296000E+02    7.07320000E-02 
S    1    1.000000
   8.73771000E+01    2.40001000E-01 
S    1    1.000000
   2.56789000E+01    5.94797000E-01 
S    1    1.000000
   3.74004000E+00    2.80802000E-01 
SP   3    1.000000
   4.21175000E+01    1.13889000E-01   3.65114000E-02 
   9.62837000E+00    9.20811000E-01   2.37153000E-01 
   2.85332000E+00   -3.27447000E-03   8.19702000E-01 
SP   1    1.000000
   9.05661000E-01    1.00000000E+00   1.00000000E+00 
SP   1    1.000000
   2.55611000E-01    1.00000000E+00   1.00000000E+00 
SP   1    1.000000
   8.45000000E-02    1.00000000E+00   1.00000000E+00 
SP   1    1.000000
   2.54518072E-02    1.00000000E+00   1.00000000E+00 
D    1    1.000000
   1.29200000E+00    1.00000000E+00 
****
N    0
S    1    1.000000
   6.29348000E+03    1.96979000E-03 
S    1    1.000000
   9.49044000E+02    1.49613000E-02 
S    1    1.000000
   2.18776000E+02    7.35006000E-02 
S    1    1.000000
   6.36916000E+01    2.48937000E-01 
S    1    1.000000
   1.88282000E+01    6.02460000E-01 
S    1    1.000000
   2.72023000E+00    2.56202000E-01 
SP   3    1.000000
   3.06331000E+01    1.11906000E-01   3.83119000E-02 
   7.02614000E+00    9.21666000E-01   2.37403000E-01 
   2.11205000E+00   -2.56919000E-03   8.17592000E-01 
SP   1    1.000000
   6.84009000E-01    1.00000000E+00   1.00000000E+00 
SP   1    1.000000
   2.00878000E-01    1.00000000E+00   1.00000000E+00 
SP   1    1.000000
   6.39000000E-02    1.00000000E+00   1.00000000E+00 
SP   1    1.000000
   1.92469880E-02    1.00000000E+00   1.00000000E+00 
D    1    1.000000
   9.13000000E-01    1.00000000E+00 
****
N    0
S    1    1.000000
   6.29348000E+03    1.96979000E-03 
S    1    1.000000
   9.49044000E+02    1.49613000E-02 
S    1    1.000000
   2.18776000E+02    7.35006000E-02 
S    1    1.000000
   6.36916000E+01    2.48937000E-01 
S    1    1.000000
   1.88282000E+01    6.02460000E-01 
S    1    1.000000
   2.72023000E+00    2.56202000E-01 
SP   3    1.000000
   3.06331000E+01    1.11906000E-01   3.83119000E-02 
   7.02614000E+00    9.21666000E-01   2.37403000E-01 
   2.11205000E+00   -2.56919000E-03   8.17592000E-01 
SP   1    1.000000
   6.84009000E-01    1.00000000E+00   1.00000000E+00 
SP   1    1.000000
   2.00878000E-01    1.00000000E+00   1.00000000E+00 
SP   1    1.000000
   6.39000000E-02    1.00000000E+00   1.00000000E+00 
SP   1    1.000000
   1.92469880E-02    1.00000000E+00   1.00000000E+00 
D    1    1.000000
   9.13000000E-01    1.00000000E+00 
****
C    0
S    1    1.000000
   4.56324000E+03    1.96665000E-03 
S    1    1.000000
   6.82024000E+02    1.52306000E-02 
S    1    1.000000
   1.54973000E+02    7.61269000E-02 
S    1    1.000000
   4.44553000E+01    2.60801000E-01 
S    1    1.000000
   1.30290000E+01    6.16462000E-01 
S    1    1.000000
   1.82773000E+00    2.21006000E-01 
SP   3    1.000000
   2.09642000E+01    1.14660000E-01   4.02487000E-02 
   4.80331000E+00    9.19999000E-01   2.37594000E-01 
   1.45933000E+00   -3.03068000E-03   8.15854000E-01 
SP   1    1.000000
   4.83456000E-01    1.00000000E+00   1.00000000E+00 
SP   1    1.000000
   1.45585000E-01    1.00000000E+00   1.00000000E+00 
SP   1    1.000000
   4.38000000E-02    1.00000000E+00   1.00000000E+00 
SP   1    1.000000
   1.31927711E-02    1.00000000E+00   1.00000000E+00 
D    1    1.000000
   6.26000000E-01    1.00000000E+00 
****
H    0
S    3    1.000000
   3.38650000E+01    2.54938000E-02 
   5.09479000E+00    1.90373000E-01 
   1.15879000E+00    8.52161000E-01 
S    1    1.000000
   3.25840000E-01    1.00000000E+00 
S    1    1.000000
   1.02741000E-01    1.00000000E+00 
S    1    1.000000
   3.60000000E-02    1.00000000E+00 
P    1    1.000000
   7.50000000E-01    1.00000000E+00 
****
$end
-----------------------------------------------------------------------
 There are 116 shells and 276 basis functions
 WARNING: the default MEM_TOTAL is adjusted according to given MEM_STATIC!
 Total memory of 40192 MB is distributed as follows: 
   MEM_STATIC is set to 192 MB
   QALLOC/CCMAN JOB total memory use is  40000 MB
 Warning: actual memory use might exceed 40192 MB

 Total QAlloc Memory Limit  40192 MB
 Mega-Array Size       188 MB
 MEM_STATIC part       192 MB

                       Distance Matrix (Angstroms)
             C (  1)   H (  2)   H (  3)   H (  4)   C (  5)   O (  6)
   H (  2)  2.078256
   H (  3)  1.079812  2.359703
   H (  4)  3.690667  4.028445  4.766843
   C (  5)  2.428535  2.028674  3.361535  2.029375
   O (  6)  3.541017  2.477987  4.364435  2.496718  1.214793
   C (  7)  2.423643  3.802677  3.426309  2.058244  2.508132  3.612537
   O (  8)  3.565452  5.017873  4.497886  2.470136  3.583415  4.572021
   N (  9)  2.679859  3.204487  3.756392  1.010813  1.379660  2.294292
   N ( 10)  1.370076  1.006193  2.077895  3.210986  1.385201  2.287190
   C ( 11)  1.348016  3.287105  2.132498  3.300967  2.851092  4.065813
   H ( 12)  2.119492  4.187728  2.490969  4.207164  3.927233  5.141931
             C (  7)   O (  8)   N (  9)   N ( 10)   C ( 11)
   O (  8)  1.218322
   N (  9)  1.403352  2.278445
   N ( 10)  2.796673  4.012523  2.301756
   C ( 11)  1.453384  2.384672  2.386333  2.377083
   H ( 12)  2.184870  2.689849  3.370872  3.357728  1.076148

 A cutoff of  1.0D-14 yielded   5442 shell pairs
 There are     35779 function pairs (     37954 Cartesian)
 Smallest overlap matrix eigenvalue = 2.79E-07
 Linear dependence detected in AO basis
 Tighter screening thresholds may be required for diffuse basis sets
 Use S2THRESH > 14 and THRESH = 14 in case of SCF convergence issues
 Number of orthogonalized atomic orbitals = 274
 Maximum deviation from orthogonality = 1.662E-10

 Scale SEOQF with 1.000000e-01/1.000000e-01/1.000000e-01

 Standard Electronic Orientation quadrupole field applied
 Nucleus-field energy     =     0.0000000098 hartrees
 Guess MOs from core Hamiltonian diagonalization

 -----------------------------------------------------------------------
  General SCF calculation program by
  Eric Jon Sundstrom, Paul Horn, Yuezhi Mao, Dmitri Zuev, Alec White,
  David Stuck, Shaama M.S., Shane Yost, Joonho Lee, David Small,
  Daniel Levine, Susi Lehtola, Hugh Burton, Evgeny Epifanovsky
 -----------------------------------------------------------------------
 Hartree-Fock
 using 4 threads for integral computing
 -------------------------------------------------------
 OpenMP Integral computing Module                
 Release: version 2.0, May 2017, Q-Chem Inc. Pleasanton 
 -------------------------------------------------------
 A restricted SCF calculation will be
 performed using DIIS
 SCF converges when DIIS error is below 1.0e-08
 ---------------------------------------
  Cycle       Energy         DIIS error
 ---------------------------------------
    1    -317.6975975837      1.18e-01  
    2    -296.6539414711      6.20e-02  
    3    -298.4325676638      7.94e-02  
    4    -386.6563648076      4.37e-02  
    5    -406.3540777357      2.27e-02  
    6    -409.8825654510      1.65e-02  
    7    -412.4527394886      2.86e-03  
    8    -412.5540542320      1.08e-03  
    9    -412.5713955530      6.06e-04  
   10    -412.5782834312      2.50e-04  
   11    -412.5798894298      1.35e-04  
   12    -412.5802387821      5.44e-05  
   13    -412.5803259988      2.02e-05  
   14    -412.5803330363      5.99e-06  
   15    -412.5803334671      1.83e-06  
   16    -412.5803335191      5.97e-07  
   17    -412.5803335244      2.14e-07  
   18    -412.5803335254      7.82e-08  
   19    -412.5803335256      1.86e-08  
   20    -412.5803335256      5.20e-09  Convergence criterion met
 ---------------------------------------
 SCF time:   CPU 169.79s  wall 46.00s 
 SCF   energy in the final basis set =     -412.5803335256
 Total energy in the final basis set =     -412.5803335256


 ------------------------------------------------------------------------------

   CCMAN2: suite of methods based on coupled cluster
           and equation of motion theories.

   Components:
   * libvmm-1.3-trunk
     by Evgeny Epifanovsky, Ilya Kaliman.
   * libtensor-2.5-trunk
     by Evgeny Epifanovsky, Michael Wormit, Dmitry Zuev, Sam Manzer, 
        Ilya Kaliman.
   * libcc-2.5-trunk
     by Evgeny Epifanovsky, Arik Landau, Tomasz Kus, Kirill Khistyaev, 
        Dmitry Zuev, Prashant Manohar, Xintian Feng, Anna Krylov, 
        Matthew Goldey, Alec White, Thomas Jagau, Kaushik Nanda, 
        Anastasia Gunina, Alexander Kunitsa, Joonho Lee.

   CCMAN original authors:
   Anna I. Krylov, C. David Sherrill, Steven R. Gwaltney,
   Edward F. C. Byrd (2000)
   Sergey V. Levchenko, Lyudmila V. Slipchenko, Tao Wang,
   Ana-Maria C. Cristian (2003)
   Piotr A. Pieniazek, C. Melania Oana, Evgeny Epifanovsky (2007)
   Prashant Manohar (2009)

 ------------------------------------------------------------------------------


 Allocating and initializing 40000MB of RAM...
 Calculation will run on 4 cores.


 Alpha MOs, Restricted
 -- Occupied --                  
-20.550 -20.545 -15.649 -15.632 -11.427 -11.388 -11.346 -11.261
  1 A'    2 A'    3 A'    4 A'    5 A'    6 A'    7 A'    8 A'                 
 -1.442  -1.404  -1.318  -1.250  -1.093  -0.938  -0.906  -0.812
  9 A'   10 A'   11 A'   12 A'   13 A'   14 A'   15 A'   16 A'                 
 -0.770  -0.718  -0.681  -0.671  -0.657  -0.619  -0.605  -0.573
 17 A'   18 A'   19 A'    1 A"   20 A'   21 A'   22 A'    2 A"                 
 -0.528  -0.487  -0.452  -0.438  -0.371
  3 A"   23 A'   24 A'    4 A"    5 A"                                         
 -- Virtual --                   
  0.005   0.019   0.020   0.022   0.031   0.033   0.035   0.036
 25 A'   26 A'    6 A"   27 A'   28 A'   29 A'   30 A'    7 A"                 
  0.038   0.046   0.047   0.049   0.053   0.054   0.055   0.068
  8 A"   31 A'   32 A'   33 A'   34 A'    9 A"   35 A'   36 A'                 
  0.072   0.072   0.079   0.085   0.086   0.088   0.095   0.097
 10 A"   37 A'   11 A"   38 A'   12 A"   39 A'   40 A'   41 A'                 
  0.112   0.116   0.118   0.120   0.127   0.131   0.134   0.137
 13 A"   14 A"   42 A'   43 A'   44 A'   45 A'   46 A'   47 A'                 
  0.138   0.155   0.162   0.164   0.172   0.184   0.189   0.195
 48 A'   15 A"   49 A'   50 A'   16 A"   51 A'   17 A"   52 A'                 
  0.209   0.210   0.224   0.230   0.235   0.241   0.243   0.260
 53 A'   18 A"   54 A'   55 A'   56 A'   19 A"   57 A'   58 A'                 
  0.266   0.270   0.278   0.279   0.286   0.296   0.300   0.333
 59 A'   60 A'   20 A"   61 A'   62 A'   21 A"   63 A'   22 A"                 
  0.333   0.347   0.373   0.388   0.391   0.405   0.410   0.410
 64 A'   65 A'   66 A'   67 A'   68 A'   69 A'   23 A"   70 A'                 
  0.420   0.422   0.441   0.449   0.455   0.463   0.481   0.482
 24 A"   71 A'   72 A'   73 A'   74 A'   75 A'   76 A'   77 A'                 
  0.505   0.529   0.545   0.558   0.615   0.630   0.655   0.706
 78 A'   79 A'   80 A'   81 A'   82 A'   83 A'   84 A'   85 A'                 
  0.734   0.740   0.761   0.776   0.778   0.799   0.822   0.824
 86 A'   25 A"   87 A'   26 A"   88 A'   27 A"   28 A"   89 A'                 
  0.878   0.888   0.938   0.963   0.971   0.979   1.008   1.015
 90 A'   91 A'   92 A'   93 A'   94 A'   95 A'   96 A'   97 A'                 
  1.029   1.042   1.061   1.093   1.100   1.114   1.159   1.227
 98 A'   29 A"   99 A'   30 A"  100 A'  101 A'  102 A'   31 A"                 
  1.242   1.245   1.270   1.301   1.368   1.370   1.393   1.406
 32 A"  103 A'  104 A'  105 A'  106 A'   33 A"   34 A"   35 A"                 
  1.421   1.441   1.460   1.464   1.513   1.515   1.543   1.557
 36 A"  107 A'  108 A'   37 A"   38 A"  109 A'  110 A'  111 A'                 
  1.583   1.760   1.777   1.803   1.814   1.877   1.899   1.915
112 A'  113 A'  114 A'  115 A'   39 A"  116 A'   40 A"  117 A'                 
  1.929   1.952   1.980   2.013   2.014   2.067   2.124   2.143
 41 A"  118 A'  119 A'   42 A"  120 A'  121 A'  122 A'  123 A'                 
  2.186   2.223   2.236   2.283   2.299   2.340   2.358   2.532
124 A'   43 A"  125 A'  126 A'  127 A'   44 A"  128 A'  129 A'                 
  2.566   2.589   2.643   2.668   2.728   2.807   2.822   2.851
 45 A"  130 A'   46 A"  131 A'   47 A"  132 A'   48 A"  133 A'                 
  2.932   2.957   3.006   3.019   3.048   3.094   3.168   3.181
134 A'  135 A'  136 A'  137 A'  138 A'   49 A"   50 A"  139 A'                 
  3.184   3.211   3.263   3.271   3.297   3.310   3.325   3.347
 51 A"  140 A'   52 A"  141 A'  142 A'   53 A"  143 A'   54 A"                 
  3.401   3.515   3.588   3.756   3.766   3.819   3.840   3.876
144 A'  145 A'  146 A'   55 A"   56 A"  147 A'  148 A'  149 A'                 
  3.914   3.959   4.017   4.049   4.106   4.288   4.305   4.364
150 A'  151 A'  152 A'  153 A'  154 A'  155 A'   57 A"   58 A"                 
  4.411   4.485   4.605   5.012   5.158   5.288   5.441   5.553
156 A'  157 A'  158 A'  159 A'  160 A'  161 A'  162 A'  163 A'                 
  5.625   5.633   5.690   5.713   5.782   5.864   5.902   6.438
 59 A"   60 A"  164 A'  165 A'  166 A'  167 A'  168 A'  169 A'                 
  6.445   7.668   7.729   9.888   9.934  20.639  20.695  20.726
170 A'  171 A'  172 A'  173 A'  174 A'  175 A'  176 A'  177 A'                 
 20.897  30.195  30.235  40.894  40.935  80.190  80.235  80.273
178 A'  179 A'  180 A'  181 A'  182 A'  183 A'  184 A'  185 A'                 
 80.428 116.314 116.350 159.240 159.273 322.013 322.053 322.094
186 A'  187 A'  188 A'  189 A'  190 A'  191 A'  192 A'  193 A'                 
322.233 460.413 460.445 631.938 631.9651431.5641431.6041431.646
194 A'  195 A'  196 A'  197 A'  198 A'  199 A'  200 A'  201 A'                 
*******2012.8872012.9162759.3342759.3578749.7838749.8248749.866
202 A'  203 A'  204 A'  205 A'  206 A'  207 A'  208 A'  209 A'                 
***************************************
210 A'  211 A'  212 A'  213 A'  214 A'                                         

 Beta MOs, Restricted
 -- Occupied --                  
-20.550 -20.545 -15.649 -15.632 -11.427 -11.388 -11.346 -11.261
  1 A'    2 A'    3 A'    4 A'    5 A'    6 A'    7 A'    8 A'                 
 -1.442  -1.404  -1.318  -1.250  -1.093  -0.938  -0.906  -0.812
  9 A'   10 A'   11 A'   12 A'   13 A'   14 A'   15 A'   16 A'                 
 -0.770  -0.718  -0.681  -0.671  -0.657  -0.619  -0.605  -0.573
 17 A'   18 A'   19 A'    1 A"   20 A'   21 A'   22 A'    2 A"                 
 -0.528  -0.487  -0.452  -0.438  -0.371
  3 A"   23 A'   24 A'    4 A"    5 A"                                         
 -- Virtual --                   
  0.005   0.019   0.020   0.022   0.031   0.033   0.035   0.036
 25 A'   26 A'    6 A"   27 A'   28 A'   29 A'   30 A'    7 A"                 
  0.038   0.046   0.047   0.049   0.053   0.054   0.055   0.068
  8 A"   31 A'   32 A'   33 A'   34 A'    9 A"   35 A'   36 A'                 
  0.072   0.072   0.079   0.085   0.086   0.088   0.095   0.097
 10 A"   37 A'   11 A"   38 A'   12 A"   39 A'   40 A'   41 A'                 
  0.112   0.116   0.118   0.120   0.127   0.131   0.134   0.137
 13 A"   14 A"   42 A'   43 A'   44 A'   45 A'   46 A'   47 A'                 
  0.138   0.155   0.162   0.164   0.172   0.184   0.189   0.195
 48 A'   15 A"   49 A'   50 A'   16 A"   51 A'   17 A"   52 A'                 
  0.209   0.210   0.224   0.230   0.235   0.241   0.243   0.260
 53 A'   18 A"   54 A'   55 A'   56 A'   19 A"   57 A'   58 A'                 
  0.266   0.270   0.278   0.279   0.286   0.296   0.300   0.333
 59 A'   60 A'   20 A"   61 A'   62 A'   21 A"   63 A'   22 A"                 
  0.333   0.347   0.373   0.388   0.391   0.405   0.410   0.410
 64 A'   65 A'   66 A'   67 A'   68 A'   69 A'   23 A"   70 A'                 
  0.420   0.422   0.441   0.449   0.455   0.463   0.481   0.482
 24 A"   71 A'   72 A'   73 A'   74 A'   75 A'   76 A'   77 A'                 
  0.505   0.529   0.545   0.558   0.615   0.630   0.655   0.706
 78 A'   79 A'   80 A'   81 A'   82 A'   83 A'   84 A'   85 A'                 
  0.734   0.740   0.761   0.776   0.778   0.799   0.822   0.824
 86 A'   25 A"   87 A'   26 A"   88 A'   27 A"   28 A"   89 A'                 
  0.878   0.888   0.938   0.963   0.971   0.979   1.008   1.015
 90 A'   91 A'   92 A'   93 A'   94 A'   95 A'   96 A'   97 A'                 
  1.029   1.042   1.061   1.093   1.100   1.114   1.159   1.227
 98 A'   29 A"   99 A'   30 A"  100 A'  101 A'  102 A'   31 A"                 
  1.242   1.245   1.270   1.301   1.368   1.370   1.393   1.406
 32 A"  103 A'  104 A'  105 A'  106 A'   33 A"   34 A"   35 A"                 
  1.421   1.441   1.460   1.464   1.513   1.515   1.543   1.557
 36 A"  107 A'  108 A'   37 A"   38 A"  109 A'  110 A'  111 A'                 
  1.583   1.760   1.777   1.803   1.814   1.877   1.899   1.915
112 A'  113 A'  114 A'  115 A'   39 A"  116 A'   40 A"  117 A'                 
  1.929   1.952   1.980   2.013   2.014   2.067   2.124   2.143
 41 A"  118 A'  119 A'   42 A"  120 A'  121 A'  122 A'  123 A'                 
  2.186   2.223   2.236   2.283   2.299   2.340   2.358   2.532
124 A'   43 A"  125 A'  126 A'  127 A'   44 A"  128 A'  129 A'                 
  2.566   2.589   2.643   2.668   2.728   2.807   2.822   2.851
 45 A"  130 A'   46 A"  131 A'   47 A"  132 A'   48 A"  133 A'                 
  2.932   2.957   3.006   3.019   3.048   3.094   3.168   3.181
134 A'  135 A'  136 A'  137 A'  138 A'   49 A"   50 A"  139 A'                 
  3.184   3.211   3.263   3.271   3.297   3.310   3.325   3.347
 51 A"  140 A'   52 A"  141 A'  142 A'   53 A"  143 A'   54 A"                 
  3.401   3.515   3.588   3.756   3.766   3.819   3.840   3.876
144 A'  145 A'  146 A'   55 A"   56 A"  147 A'  148 A'  149 A'                 
  3.914   3.959   4.017   4.049   4.106   4.288   4.305   4.364
150 A'  151 A'  152 A'  153 A'  154 A'  155 A'   57 A"   58 A"                 
  4.411   4.485   4.605   5.012   5.158   5.288   5.441   5.553
156 A'  157 A'  158 A'  159 A'  160 A'  161 A'  162 A'  163 A'                 
  5.625   5.633   5.690   5.713   5.782   5.864   5.902   6.438
 59 A"   60 A"  164 A'  165 A'  166 A'  167 A'  168 A'  169 A'                 
  6.445   7.668   7.729   9.888   9.934  20.639  20.695  20.726
170 A'  171 A'  172 A'  173 A'  174 A'  175 A'  176 A'  177 A'                 
 20.897  30.195  30.235  40.894  40.935  80.190  80.235  80.273
178 A'  179 A'  180 A'  181 A'  182 A'  183 A'  184 A'  185 A'                 
 80.428 116.314 116.350 159.240 159.273 322.013 322.053 322.094
186 A'  187 A'  188 A'  189 A'  190 A'  191 A'  192 A'  193 A'                 
322.233 460.413 460.445 631.938 631.9651431.5641431.6041431.646
194 A'  195 A'  196 A'  197 A'  198 A'  199 A'  200 A'  201 A'                 
*******2012.8872012.9162759.3342759.3578749.7838749.8248749.866
202 A'  203 A'  204 A'  205 A'  206 A'  207 A'  208 A'  209 A'                 
***************************************
210 A'  211 A'  212 A'  213 A'  214 A'                                         

 Occupation and symmetry of molecular orbitals

 Point group: Cs (2 irreducible representations).

                           A'   A"    All 
 ------------------------------------------
 All molecular orbitals:
  - Alpha                  214  60    274 
  - Beta                   214  60    274 
 ------------------------------------------
 Alpha orbitals:
  - Frozen occupied        2    0     2   
  - Active occupied        22   5     27  
  - Active virtual         190  55    245 
  - Frozen virtual         0    0     0   
 ------------------------------------------
 Beta orbitals:
  - Frozen occupied        2    0     2   
  - Active occupied        22   5     27  
  - Active virtual         190  55    245 
  - Frozen virtual         0    0     0   
 ------------------------------------------

 Import integrals:   CPU 0.00 s  wall 0.00 s

 Import integrals:   CPU 437.71 s  wall 137.92 s

 MP2 amplitudes:   CPU 2.78 s  wall 2.24 s

Running a double precision version
           CCSD T amplitudes will be solved using DIIS.

           Start     Size      MaxIter   EConv     TConv     
           3         7         100       1.00e-06  1.00e-04  
 ------------------------------------------------------------------------------
           Energy (a.u.)   Ediff      Tdiff       Comment
 ------------------------------------------------------------------------------
          -413.99317551                           
     1    -413.96564067   2.75e-02   1.02e+00     
     2    -414.01140648   4.58e-02   1.36e-01     
     3    -414.00730800   4.10e-03   5.71e-02     
     4    -414.01200074   4.69e-03   2.43e-02     Switched to DIIS steps.
     5    -414.01361019   1.61e-03   1.33e-02     
     6    -414.01375867   1.48e-04   3.46e-03     
     7    -414.01376081   2.14e-06   1.37e-03     
     8    -414.01375683   3.99e-06   4.39e-04     
     9    -414.01375957   2.75e-06   1.75e-04     
    10    -414.01375939   1.87e-07   5.48e-05     
 ------------------------------------------------------------------------------
          -414.01375939                           CCSD T converged.

End of double precision
 SCF energy                 = -412.58033353
 MP2 energy                 = -413.99317551
 CCSD correlation energy    =   -1.43342586
 CCSD total energy          = -414.01375939

 CCSD  T1^2 = 0.0266  T2^2 = 0.4139  Leading amplitudes:

 Amplitude    Orbitals with energies
  0.0376       2 (A") A                  ->    15 (A") A                  
              -0.5733                          0.1553                     
  0.0376       2 (A") B                  ->    15 (A") B                  
              -0.5733                          0.1553                     
 -0.0289       2 (A") A                  ->    11 (A") A                  
              -0.5733                          0.0787                     
 -0.0289       2 (A") B                  ->    11 (A") B                  
              -0.5733                          0.0787                     

 Amplitude    Orbitals with energies
 -0.0402       5 (A") A      5 (A") B    ->    11 (A") A     11 (A") B    
              -0.3712       -0.3712            0.0787        0.0787       
  0.0402       5 (A") A      5 (A") B    ->    11 (A") B     11 (A") A    
              -0.3712       -0.3712            0.0787        0.0787       
  0.0402       5 (A") B      5 (A") A    ->    11 (A") A     11 (A") B    
              -0.3712       -0.3712            0.0787        0.0787       
 -0.0402       5 (A") B      5 (A") A    ->    11 (A") B     11 (A") A    
              -0.3712       -0.3712            0.0787        0.0787       

 Computing CCSD intermediates for later calculations in double precision
 Finished.

Running a double precision version
           CCSD Lambda amplitudes will be solved using DIIS.
           Start     Size      MaxIter   EConv     LConv     
           3         7         100       1.00e-06  1.00e-04  
 ------------------------------------------------------------------------------
            Enorm      Ldiff       Comment
 ------------------------------------------------------------------------------
     1     7.16e-02   4.18e-02     
     2     2.67e-02   9.05e-03     
     3     1.22e-02   4.90e-04     
     4     5.01e-03   1.66e-03     Switched to DIIS steps.
     5     1.46e-03   9.39e-04     
     6     6.45e-04   2.01e-04     
     7     2.27e-04   5.54e-05     
     8     9.76e-05   1.03e-05     
     9     4.01e-05   3.57e-06     
    10     1.93e-05   1.35e-06     
    11     8.61e-06   1.91e-07     
    12     3.34e-06   1.80e-07     
    13     1.38e-06   2.74e-08     
    14     5.89e-07   7.71e-09     
 ------------------------------------------------------------------------------
                                   CCSD Lambda converged.

 CCSD calculation:   CPU 4508.94 s  wall 1262.78 s

        Solving for EOMEE-CCSD A' singlet states.

Running a double precision version
        EOMEE-CCSD/MP2 right amplitudes will be solved using Davidson.
        Amplitudes will be solved using standard  algorithm.
     Hard-coded thresholds: 
     LinDepThresh=1.00e-15  NormThresh=1.00e-06  ReorthogonThresh=1.00e-02

      Roots     MaxVec    MaxIter   Precond   Conv      Shift    
      3         120       60        1         1.00e-04  0.00e+00  
 ------------------------------------------------------------------------------
      Iter ConvRoots NVecs ResNorm Current eigenvalues (eV)
 ------------------------------------------------------------------------------
      0    0      3     1.48e-01   10.3264   10.9853   11.0262   
      1    0      6     5.27e-01   8.8751   9.5277   9.5609   
      2    0      9     1.48e-02   7.5498   8.2398   8.2594   
      3    0      12    4.22e-03   7.3471   8.0726   8.1183   
      4    0      15    1.09e-02   7.1821   7.8472   8.0289   
      5    0      18    2.34e-02   6.8386   7.3007   7.8523   
      6    0      21    1.17e-02   6.1972   7.1678   7.5649   
      7    0      24    9.14e-03   5.7922   7.1387   7.2451   
      8    0      27    2.59e-03   5.6934   7.0754   7.1315   
      9    1      30    4.02e-04   5.6699   7.0193   7.1285*  
      10   2      32    2.28e-04   5.6658*  7.0080   7.1284*  
      11   2      33    1.86e-04   5.6657*  6.9979   7.1284*  
      12   2      34    2.84e-04   5.6655*  6.9870   7.1281*  
      13   1      35    6.68e-04   5.6654*  6.9604   7.1269   
      14   1      37    1.05e-03   5.6653*  6.9162   7.1175   
      15   1      39    1.62e-03   5.6653*  6.8467   7.0759   
      16   1      41    9.01e-04   5.6651*  6.7873   7.0522   
      17   1      43    4.08e-04   5.6650*  6.7583   7.0415   
      18   1      45    2.18e-04   5.6650*  6.7419   7.0378   
      19   2      47    1.21e-04   5.6650*  6.7331   7.0345*  
      20   2      48    1.01e-04   5.6650*  6.7288   7.0335*  
      21   3      49    5.20e-05   5.6650*  6.7256*  7.0319*  

     Davidson procedure converged

 EOMEE transition 1/A'
 Total energy = -413.80557595 a.u.  Excitation energy = 5.6650 eV.
 R0^2 = 0.0002  R1^2 = 0.9109  R2^2 = 0.0891  Res^2 = 5.50e-05
 Conv-d = yes

 Amplitude    Transitions between orbitals
 -0.5058       5 (A") A                  ->    11 (A") A                  
 -0.5058       5 (A") B                  ->    11 (A") B                  
 -0.2601       5 (A") A                  ->    12 (A") A                  
 -0.2601       5 (A") B                  ->    12 (A") B                  
 -0.2377       5 (A") A                  ->    10 (A") A                  
 -0.2377       5 (A") B                  ->    10 (A") B                  

              Summary of significant orbitals:

               Number  Type             Irrep      Energy
               29      Occ  Alpha       5 (A")     -0.3712
               29      Occ  Beta        5 (A")     -0.3712
               46      Vir  Alpha      10 (A")      0.0716
               48      Vir  Alpha      11 (A")      0.0787
               50      Vir  Alpha      12 (A")      0.0859
               46      Vir  Beta       10 (A")      0.0716
               48      Vir  Beta       11 (A")      0.0787
               50      Vir  Beta       12 (A")      0.0859


 EOMEE transition 2/A'
 Total energy = -413.76659735 a.u.  Excitation energy = 6.7256 eV.
 R0^2 = 0.0000  R1^2 = 0.8889  R2^2 = 0.1111  Res^2 = 6.81e-05
 Conv-d = yes

 Amplitude    Transitions between orbitals
 -0.4897       4 (A") A                  ->    11 (A") A                  
 -0.4897       4 (A") B                  ->    11 (A") B                  
 -0.2610       4 (A") A                  ->    10 (A") A                  
 -0.2610       4 (A") B                  ->    10 (A") B                  
 -0.2068       4 (A") A                  ->    12 (A") A                  
 -0.2068       4 (A") B                  ->    12 (A") B                  
  0.1207       4 (A") A                  ->    16 (A") A                  
  0.1207       4 (A") B                  ->    16 (A") B                  

              Summary of significant orbitals:

               Number  Type             Irrep      Energy
               28      Occ  Alpha       4 (A")     -0.4384
               28      Occ  Beta        4 (A")     -0.4384
               46      Vir  Alpha      10 (A")      0.0716
               48      Vir  Alpha      11 (A")      0.0787
               50      Vir  Alpha      12 (A")      0.0859
               66      Vir  Alpha      16 (A")      0.1722
               46      Vir  Beta       10 (A")      0.0716
               48      Vir  Beta       11 (A")      0.0787
               50      Vir  Beta       12 (A")      0.0859
               66      Vir  Beta       16 (A")      0.1722


 EOMEE transition 3/A'
 Total energy = -413.75534027 a.u.  Excitation energy = 7.0319 eV.
 R0^2 = 0.0002  R1^2 = 0.9045  R2^2 = 0.0955  Res^2 = 3.29e-05
 Conv-d = yes

 Amplitude    Transitions between orbitals
 -0.4785       5 (A") A                  ->    15 (A") A                  
 -0.4785       5 (A") B                  ->    15 (A") B                  
  0.2917       5 (A") A                  ->    14 (A") A                  
  0.2917       5 (A") B                  ->    14 (A") B                  
  0.1547       5 (A") A                  ->    8 (A") A                   
  0.1547       5 (A") B                  ->    8 (A") B                   
 -0.1304       5 (A") A                  ->    16 (A") A                  
 -0.1304       5 (A") B                  ->    16 (A") B                  
  0.1103       5 (A") A                  ->    18 (A") A                  
  0.1103       5 (A") B                  ->    18 (A") B                  

              Summary of significant orbitals:

               Number  Type             Irrep      Energy
               29      Occ  Alpha       5 (A")     -0.3712
               29      Occ  Beta        5 (A")     -0.3712
               38      Vir  Alpha       8 (A")      0.0383
               55      Vir  Alpha      14 (A")      0.1156
               63      Vir  Alpha      15 (A")      0.1553
               66      Vir  Alpha      16 (A")      0.1722
               71      Vir  Alpha      18 (A")      0.2103
               38      Vir  Beta        8 (A")      0.0383
               55      Vir  Beta       14 (A")      0.1156
               63      Vir  Beta       15 (A")      0.1553
               66      Vir  Beta       16 (A")      0.1722
               71      Vir  Beta       18 (A")      0.2103


Running a double precision version
      EOM-CCSD/MP2 left amplitudes will be solved using Davidson.
        Amplitudes will be solved using MOM  algorithm.
     Hard-coded thresholds: 
     LinDepThresh=1.00e-15  NormThresh=1.00e-06  ReorthogonThresh=1.00e-02

      Roots     MaxVec    MaxIter   Precond   Conv      Shift    
      3         120       60        1         1.00e-04  0.00e+00  
 ------------------------------------------------------------------------------
      Iter ConvRoots NVecs ResNorm Current eigenvalues (eV)
 ------------------------------------------------------------------------------
      0    0      3     1.30e-02   5.6650   6.7256   7.0319   
      1    0      6     5.28e+00   5.6649   6.7256   7.0320   
      2    0      9     1.01e-02   5.6645   6.7256   7.0319   
      3    0      12    1.72e-03   5.6643   6.7252   7.0317   
      4    1      15    3.00e-04   5.6641*  6.7250   7.0316   
      5    2      17    8.14e-05   5.6641*  6.7246   7.0314*  
      6    2      18    9.27e-05   5.6641*  6.7240   7.0311*  
      7    2      19    1.07e-04   5.6641*  6.7236*  7.0309   
      8    1      20    2.61e-04   5.6641*  6.7234   7.0306   
      9    1      22    4.35e-04   5.6641*  6.7232   7.0303   
      10   3      24    3.77e-05   5.6641*  6.7231*  7.0300*  

     Davidson procedure converged

        Solving for EOMEE-CCSD A" singlet states.

Running a double precision version
        EOMEE-CCSD/MP2 right amplitudes will be solved using Davidson.
        Amplitudes will be solved using standard  algorithm.
     Hard-coded thresholds: 
     LinDepThresh=1.00e-15  NormThresh=1.00e-06  ReorthogonThresh=1.00e-02

      Roots     MaxVec    MaxIter   Precond   Conv      Shift    
      3         120       60        1         1.00e-04  0.00e+00  
 ------------------------------------------------------------------------------
      Iter ConvRoots NVecs ResNorm Current eigenvalues (eV)
 ------------------------------------------------------------------------------
      0    0      3     1.50e-01   9.7701   10.4724   10.6555   
      1    0      6     1.39e+01   8.4931   9.0815   9.2722   
      2    0      9     3.68e-01   6.8067   7.6216   7.7652   
      3    0      12    2.66e-02   6.4411   7.3680   7.4925   
      4    0      15    1.83e-01   6.1663   7.1512   7.2331   
      5    0      18    5.19e-02   6.0659   7.0283   7.0523   
      6    0      21    3.40e-03   6.0401   6.9908   6.9954   
      7    0      24    6.90e-03   6.0354   6.9779   6.9840   
      8    1      27    1.44e-03   6.0351*  6.9681   6.9809   
      9    1      29    8.53e-04   6.0349*  6.9615   6.9788   
      10   1      31    1.22e-03   6.0349*  6.9582   6.9768   
      11   1      33    1.59e-04   6.0349*  6.9568   6.9758   
      12   1      35    9.26e-04   6.0349*  6.9544   6.9738   
      13   1      37    3.59e-01   6.0349*  6.7190   6.9643   
      14   1      39    2.05e-02   5.6378   6.0350*  6.9579   
      15   1      41    3.36e-02   5.2568   6.0349*  6.9571   
      16   2      43    5.93e-03   5.1783   6.0349*  6.9569*  
      17   2      44    6.05e-04   5.1587   6.0349*  6.9568*  
      18   2      45    1.32e-03   5.1527   6.0349*  6.9567*  
      19   2      46    2.69e-04   5.1477   6.0349*  6.9565*  
      20   1      47    3.85e-03   5.1446   6.0349*  6.9530   
      21   1      49    3.11e-02   5.1433   6.0349*  6.7286   
      22   2      51    3.53e-03   5.1430*  6.0349*  6.5927   
      23   2      52    5.44e-03   5.1429*  6.0349*  6.5431   
      24   2      53    9.17e-04   5.1430*  6.0349*  6.5226   
      25   2      54    1.20e-03   5.1430*  6.0349*  6.5148   
      26   2      55    3.60e-04   5.1430*  6.0349*  6.5071   
      27   2      56    9.25e-05   5.1430*  6.0349*  6.5053   
      28   2      57    1.66e-04   5.1430*  6.0349*  6.5041   
      29   3      58    3.28e-05   5.1430*  6.0349*  6.5033*  

     Davidson procedure converged

 EOMEE transition 1/A"
 Total energy = -413.82475898 a.u.  Excitation energy = 5.1430 eV.
 R0^2 = 0.0000  R1^2 = 0.9090  R2^2 = 0.0910  Res^2 = 1.41e-06
 Conv-d = yes

 Amplitude    Transitions between orbitals
  0.4563       24 (A') A                 ->    11 (A") A                  
  0.4563       24 (A') B                 ->    11 (A") B                  
  0.2214       24 (A') A                 ->    12 (A") A                  
  0.2214       24 (A') B                 ->    12 (A") B                  
  0.2147       24 (A') A                 ->    10 (A") A                  
  0.2147       24 (A') B                 ->    10 (A") B                  
 -0.1908       24 (A') A                 ->    15 (A") A                  
 -0.1908       24 (A') B                 ->    15 (A") B                  
 -0.1575       24 (A') A                 ->    16 (A") A                  
 -0.1575       24 (A') B                 ->    16 (A") B                  
 -0.1305       23 (A') A                 ->    11 (A") A                  
 -0.1305       23 (A') B                 ->    11 (A") B                  
  0.1140       24 (A') A                 ->    21 (A") A                  
  0.1140       24 (A') B                 ->    21 (A") B                  
  0.1101       24 (A') A                 ->    14 (A") A                  
  0.1101       24 (A') B                 ->    14 (A") B                  

              Summary of significant orbitals:

               Number  Type             Irrep      Energy
               26      Occ  Alpha      23 (A')     -0.4866
               27      Occ  Alpha      24 (A')     -0.4518
               26      Occ  Beta       23 (A')     -0.4866
               27      Occ  Beta       24 (A')     -0.4518
               46      Vir  Alpha      10 (A")      0.0716
               48      Vir  Alpha      11 (A")      0.0787
               50      Vir  Alpha      12 (A")      0.0859
               55      Vir  Alpha      14 (A")      0.1156
               63      Vir  Alpha      15 (A")      0.1553
               66      Vir  Alpha      16 (A")      0.1722
               83      Vir  Alpha      21 (A")      0.2958
               46      Vir  Beta       10 (A")      0.0716
               48      Vir  Beta       11 (A")      0.0787
               50      Vir  Beta       12 (A")      0.0859
               55      Vir  Beta       14 (A")      0.1156
               63      Vir  Beta       15 (A")      0.1553
               66      Vir  Beta       16 (A")      0.1722
               83      Vir  Beta       21 (A")      0.2958


 EOMEE transition 2/A"
 Total energy = -413.79198024 a.u.  Excitation energy = 6.0349 eV.
 R0^2 = 0.0000  R1^2 = 0.9280  R2^2 = 0.0720  Res^2 = 1.85e-05
 Conv-d = yes

 Amplitude    Transitions between orbitals
  0.4707       5 (A") A                  ->    25 (A') A                  
  0.4707       5 (A") B                  ->    25 (A') B                  
  0.2934       5 (A") A                  ->    32 (A') A                  
  0.2934       5 (A") B                  ->    32 (A') B                  
  0.1479       5 (A") A                  ->    30 (A') A                  
  0.1479       5 (A") B                  ->    30 (A') B                  
  0.1386       5 (A") A                  ->    33 (A') A                  
  0.1386       5 (A") B                  ->    33 (A') B                  
  0.1297       5 (A") A                  ->    39 (A') A                  
  0.1297       5 (A") B                  ->    39 (A') B                  
  0.1165       5 (A") A                  ->    45 (A') A                  
  0.1165       5 (A") B                  ->    45 (A') B                  

              Summary of significant orbitals:

               Number  Type             Irrep      Energy
               29      Occ  Alpha       5 (A")     -0.3712
               29      Occ  Beta        5 (A")     -0.3712
               30      Vir  Alpha      25 (A')      0.0049
               36      Vir  Alpha      30 (A')      0.0353
               40      Vir  Alpha      32 (A')      0.0472
               41      Vir  Alpha      33 (A')      0.0489
               51      Vir  Alpha      39 (A')      0.0882
               59      Vir  Alpha      45 (A')      0.1306
               30      Vir  Beta       25 (A')      0.0049
               36      Vir  Beta       30 (A')      0.0353
               40      Vir  Beta       32 (A')      0.0472
               41      Vir  Beta       33 (A')      0.0489
               51      Vir  Beta       39 (A')      0.0882
               59      Vir  Beta       45 (A')      0.1306


 EOMEE transition 3/A"
 Total energy = -413.77476676 a.u.  Excitation energy = 6.5033 eV.
 R0^2 = 0.0000  R1^2 = 0.9175  R2^2 = 0.0825  Res^2 = 7.86e-05
 Conv-d = yes

 Amplitude    Transitions between orbitals
 -0.3456       23 (A') A                 ->    15 (A") A                  
 -0.3456       23 (A') B                 ->    15 (A") B                  
 -0.3230       24 (A') A                 ->    15 (A") A                  
 -0.3230       24 (A') B                 ->    15 (A") B                  
  0.1805       23 (A') A                 ->    18 (A") A                  
  0.1805       23 (A') B                 ->    18 (A") B                  
 -0.1668       23 (A') A                 ->    11 (A") A                  
 -0.1668       23 (A') B                 ->    11 (A") B                  
  0.1469       24 (A') A                 ->    14 (A") A                  
  0.1469       24 (A') B                 ->    14 (A") B                  
  0.1434       23 (A') A                 ->    14 (A") A                  
  0.1434       23 (A') B                 ->    14 (A") B                  
  0.1291       24 (A') A                 ->    18 (A") A                  
  0.1291       24 (A') B                 ->    18 (A") B                  
 -0.1229       23 (A') A                 ->    10 (A") A                  
 -0.1229       23 (A') B                 ->    10 (A") B                  
 -0.1214       24 (A') A                 ->    11 (A") A                  
 -0.1214       24 (A') B                 ->    11 (A") B                  
 -0.1152       23 (A') A                 ->    21 (A") A                  
 -0.1152       23 (A') B                 ->    21 (A") B                  

              Summary of significant orbitals:

               Number  Type             Irrep      Energy
               26      Occ  Alpha      23 (A')     -0.4866
               27      Occ  Alpha      24 (A')     -0.4518
               26      Occ  Beta       23 (A')     -0.4866
               27      Occ  Beta       24 (A')     -0.4518
               46      Vir  Alpha      10 (A")      0.0716
               48      Vir  Alpha      11 (A")      0.0787
               55      Vir  Alpha      14 (A")      0.1156
               63      Vir  Alpha      15 (A")      0.1553
               71      Vir  Alpha      18 (A")      0.2103
               83      Vir  Alpha      21 (A")      0.2958
               46      Vir  Beta       10 (A")      0.0716
               48      Vir  Beta       11 (A")      0.0787
               55      Vir  Beta       14 (A")      0.1156
               63      Vir  Beta       15 (A")      0.1553
               71      Vir  Beta       18 (A")      0.2103
               83      Vir  Beta       21 (A")      0.2958


Running a double precision version
      EOM-CCSD/MP2 left amplitudes will be solved using Davidson.
        Amplitudes will be solved using MOM  algorithm.
     Hard-coded thresholds: 
     LinDepThresh=1.00e-15  NormThresh=1.00e-06  ReorthogonThresh=1.00e-02

      Roots     MaxVec    MaxIter   Precond   Conv      Shift    
      3         120       60        1         1.00e-04  0.00e+00  
 ------------------------------------------------------------------------------
      Iter ConvRoots NVecs ResNorm Current eigenvalues (eV)
 ------------------------------------------------------------------------------
      0    0      3     1.26e-02   5.1430   6.0349   6.5033   
      1    0      6     4.57e+00   5.1429   6.0349   6.5033   
      2    0      9     1.72e-02   5.1429   6.0346   6.5033   
      3    0      12    1.82e-03   5.1429   6.0346   6.5032   
      4    2      15    3.44e-04   5.1429   6.0346*  6.5032*  
      5    2      16    8.30e-05   5.1429*  6.0346*  6.5032   
      6    3      17    2.69e-05   5.1429*  6.0346*  6.5032*  

     Davidson procedure converged

 EOMEE-CCSD calculation:   CPU 16656.66 s  wall 7440.03 s

        Solving for CVS-EOMIP-CCSD A' transitions.

Warning! Not enough singles to form guess subspace. Doubles guess vectors will be generated.
In case of poor EOM convergence, reduce requested IP_STATES.

Running a double precision version
      CVS-EOMIP-CCSD/MP2 right amplitudes will be solved using Davidson.
        Amplitudes will be solved using shifted  algorithm.
     Hard-coded thresholds: 
     LinDepThresh=1.00e-15  NormThresh=1.00e-06  ReorthogonThresh=1.00e-02

      Roots     MaxVec    MaxIter   Precond   Conv      Shift    
      12        120       60        1         1.00e-04  1.85e+01  
 ------------------------------------------------------------------------------
      Iter ConvRoots NVecs ResNorm Current eigenvalues (eV)
 ------------------------------------------------------------------------------
      0    0      12    3.68e-01   559.4121   559.4830   573.6194   573.6423   573.7761   574.2508   574.3969   574.5315   574.5755   574.7208   574.7358   574.9025   
      1    0      24    8.70e-01   555.9103   555.9760   571.9339   571.9498   571.9792   572.6122   572.6700   572.6858   572.7252   572.7427   572.7665   572.9115   
      2    0      36    3.80e-02   539.7556   539.9251   570.4448   570.5239   570.5923   570.5926   570.7831   571.0152   571.1808   571.1991   571.7163   571.8451   
      3    0      48    4.75e-02   539.0774   539.2587   564.3658   564.9946   565.2221   565.9269   566.8267   567.2660   569.6479   569.9267   570.2723   571.0893   
      4    0      60    2.81e-02   539.0671   539.2482   561.1954   561.8380   562.0125   562.3849   563.1942   563.6101   568.3963   569.1039   570.0689   570.4371   
      5    2      72    8.90e-03   539.0624*  539.2443*  559.5280   560.1090   560.5121   560.9897   561.3713   562.2808   566.4714   566.8847   569.8601   569.9659   
      6    2      82    4.35e-03   539.0624*  539.2443*  559.0944   559.6658   560.2436   560.7054   561.0205   562.0012   566.0869   566.2986   569.3068   569.9200   
      7    2      92    1.73e-02   539.0624*  539.2443*  559.0487   559.5992   560.2253   560.6828   560.9553   561.9754   565.2379   565.8664   566.3320   568.4626   
      8    6      102   7.62e-03   539.0624*  539.2443*  559.0410*  559.5888*  560.2202*  560.6773*  560.9422   561.9673   563.3618   563.9305   565.8988   566.3691   
      9    8      108   3.33e-03   539.0624*  539.2444*  559.0410*  559.5888*  560.2177*  560.6759*  560.9400*  561.9642*  562.7892   563.2598   564.9960   566.2446   
      10   8      112   3.61e-03   539.0624*  539.2444*  559.0410*  559.5888*  560.2159*  560.6752*  560.9400*  561.9642*  562.4827   563.0525   564.5654   565.9725   
      11   8      116   1.78e-03   539.0624*  539.2444*  559.0410*  559.5888*  560.2151*  560.6749*  560.9400*  561.9642*  562.3038   562.9649   564.4333   565.1447   
      12   8      120   6.58e-04   539.0624*  539.2444*  559.0410*  559.5888*  560.2149*  560.6748*  560.9400*  561.9641*  562.2222   562.9301   564.3664   564.8464   
      13   8      16    1.80e-04   539.0624*  539.2444*  559.0410*  559.5888*  560.2149*  560.6749*  560.9400*  561.9640*  562.2057   562.9216   564.3430   564.7785   
      14   8      20    1.87e-04   539.0624*  539.2444*  559.0410*  559.5888*  560.2149*  560.6749*  560.9400*  561.9640*  562.1987   562.9171   564.3227   564.7452   
      15   10     24    7.31e-05   539.0624*  539.2444*  559.0410*  559.5888*  560.2149*  560.6749*  560.9400*  561.9640*  562.1958*  562.9146*  564.3071   564.7326   
      16   11     26    6.64e-05   539.0624*  539.2444*  559.0410*  559.5888*  560.2149*  560.6747*  560.9400*  561.9640*  562.1957*  562.9140*  564.2964   564.7277*  
      17   11     27    4.48e-05   539.0624*  539.2444*  559.0410*  559.5888*  560.2149*  560.6747*  560.9400*  561.9639*  562.1957*  562.9140*  564.2921*  564.7274   
      18   12     28    4.18e-05   539.0624*  539.2444*  559.0410*  559.5888*  560.2149*  560.6747*  560.9400*  561.9639*  562.1957*  562.9140*  564.2920*  564.7256*  

     Davidson procedure converged

 EOMIP transition 1/A'
 Total energy = -394.20357894 a.u.  Excitation energy = 539.0624 eV.
 R1^2 = 0.9026  R2_CCVV^2 = 0.0010  R2_COVV^2 = 0.0970  Res^2 = 2.29e-05
 Conv-d = yes

 Amplitude    Transitions between orbitals
  0.9500       2 (A') A                  ->    infty        

              Summary of significant orbitals:

               Number  Type             Irrep      Energy
               2       Occ  Alpha       2 (A')    -20.5449


 EOMIP transition 2/A'
 Total energy = -394.19689049 a.u.  Excitation energy = 539.2444 eV.
 R1^2 = 0.9039  R2_CCVV^2 = 0.0010  R2_COVV^2 = 0.0957  Res^2 = 2.02e-05
 Conv-d = yes

 Amplitude    Transitions between orbitals
 -0.9507       1 (A') A                  ->    infty        

              Summary of significant orbitals:

               Number  Type             Irrep      Energy
               1       Occ  Alpha       1 (A')    -20.5505


 EOMIP transition 3/A'
 Total energy = -393.46937861 a.u.  Excitation energy = 559.0410 eV.
 R1^2 = 0.0000  R2_CCVV^2 = 0.0000  R2_COVV^2 = 1.0000  Res^2 = 4.94e-05
 Conv-d = yes

 Amplitude    Transitions between orbitals
  0.4107       2 (A') B      5 (A") A    ->    11 (A") B    
 -0.4107       2 (A') A      5 (A") A    ->    11 (A") A    
  0.4107       2 (A') A      5 (A") B    ->    11 (A") B    
  0.3480       2 (A') A      5 (A") A    ->    15 (A") A    
 -0.3480       2 (A') B      5 (A") A    ->    15 (A") B    
 -0.3479       2 (A') A      5 (A") B    ->    15 (A") B    
 -0.2191       2 (A') A      5 (A") A    ->    12 (A") A    
  0.2191       2 (A') B      5 (A") A    ->    12 (A") B    
  0.2191       2 (A') A      5 (A") B    ->    12 (A") B    
 -0.2178       2 (A') B      5 (A") A    ->    24 (A") B    
  0.2178       2 (A') A      5 (A") A    ->    24 (A") A    
 -0.2178       2 (A') A      5 (A") B    ->    24 (A") B    
  0.2062       2 (A') A      5 (A") A    ->    16 (A") A    
 -0.2062       2 (A') B      5 (A") A    ->    16 (A") B    
 -0.2062       2 (A') A      5 (A") B    ->    16 (A") B    
 -0.2007       2 (A') A      5 (A") A    ->    21 (A") A    
  0.2007       2 (A') B      5 (A") A    ->    21 (A") B    
  0.2007       2 (A') A      5 (A") B    ->    21 (A") B    
  0.1771       2 (A') B      5 (A") A    ->    23 (A") B    
 -0.1771       2 (A') A      5 (A") A    ->    23 (A") A    
  0.1771       2 (A') A      5 (A") B    ->    23 (A") B    
 -0.1694       2 (A') A      5 (A") A    ->    10 (A") A    
  0.1694       2 (A') B      5 (A") A    ->    10 (A") B    
  0.1694       2 (A') A      5 (A") B    ->    10 (A") B    
  0.1180       2 (A') B      5 (A") A    ->    34 (A") B    
 -0.1180       2 (A') A      5 (A") A    ->    34 (A") A    
  0.1180       2 (A') A      5 (A") B    ->    34 (A") B    
 -0.1119       2 (A') A      5 (A") A    ->    14 (A") A    
  0.1119       2 (A') B      5 (A") A    ->    14 (A") B    
  0.1119       2 (A') A      5 (A") B    ->    14 (A") B    
 -0.1087       2 (A') B      5 (A") A    ->    36 (A") B    
  0.1087       2 (A') A      5 (A") A    ->    36 (A") A    
 -0.1087       2 (A') A      5 (A") B    ->    36 (A") B    

              Summary of significant orbitals:

               Number  Type             Irrep      Energy
               2       Occ  Alpha       2 (A')    -20.5449
               2       Occ  Beta        2 (A')    -20.5449
               29      Occ  Alpha       5 (A")     -0.3712
               29      Occ  Beta        5 (A")     -0.3712
               46      Vir  Alpha      10 (A")      0.0716
               48      Vir  Alpha      11 (A")      0.0787
               50      Vir  Alpha      12 (A")      0.0859
               55      Vir  Alpha      14 (A")      0.1156
               63      Vir  Alpha      15 (A")      0.1553
               66      Vir  Alpha      16 (A")      0.1722
               83      Vir  Alpha      21 (A")      0.2958
               92      Vir  Alpha      23 (A")      0.4099
               94      Vir  Alpha      24 (A")      0.4199
               140     Vir  Alpha      34 (A")      1.3933
               142     Vir  Alpha      36 (A")      1.4211
               46      Vir  Beta       10 (A")      0.0716
               48      Vir  Beta       11 (A")      0.0787
               50      Vir  Beta       12 (A")      0.0859
               55      Vir  Beta       14 (A")      0.1156
               63      Vir  Beta       15 (A")      0.1553
               66      Vir  Beta       16 (A")      0.1722
               83      Vir  Beta       21 (A")      0.2958
               92      Vir  Beta       23 (A")      0.4099
               94      Vir  Beta       24 (A")      0.4199
               140     Vir  Beta       34 (A")      1.3933
               142     Vir  Beta       36 (A")      1.4211


 EOMIP transition 4/A'
 Total energy = -393.44924945 a.u.  Excitation energy = 559.5888 eV.
 R1^2 = 0.0030  R2_CCVV^2 = 0.0000  R2_COVV^2 = 0.9970  Res^2 = 8.22e-05
 Conv-d = yes

 Amplitude    Transitions between orbitals
 -0.5252       2 (A') A      5 (A") B    ->    11 (A") B    
  0.4617       2 (A') A      5 (A") B    ->    15 (A") B    
  0.4267       2 (A') B      5 (A") A    ->    11 (A") B    
 -0.3540       2 (A') B      5 (A") A    ->    15 (A") B    
  0.2931       2 (A') A      5 (A") B    ->    24 (A") B    
 -0.2839       2 (A') A      5 (A") B    ->    21 (A") B    
 -0.2790       2 (A') A      5 (A") B    ->    12 (A") B    
  0.2634       2 (A') A      5 (A") B    ->    16 (A") B    
 -0.2445       2 (A') A      5 (A") B    ->    23 (A") B    
  0.2269       2 (A') B      5 (A") A    ->    12 (A") B    
 -0.2151       2 (A') A      5 (A") B    ->    10 (A") B    
 -0.2138       2 (A') B      5 (A") A    ->    24 (A") B    
 -0.2117       2 (A') B      5 (A") A    ->    16 (A") B    
  0.2032       2 (A') B      5 (A") A    ->    21 (A") B    
  0.1771       2 (A') B      5 (A") A    ->    10 (A") B    
 -0.1755       2 (A') A      4 (A") B    ->    11 (A") B    
  0.1751       2 (A') A      4 (A") B    ->    15 (A") B    
  0.1749       2 (A') B      5 (A") A    ->    23 (A") B    
 -0.1575       2 (A') A      5 (A") B    ->    34 (A") B    
 -0.1469       2 (A') A      5 (A") B    ->    14 (A") B    
  0.1433       2 (A') A      5 (A") B    ->    36 (A") B    
  0.1162       2 (A') B      5 (A") A    ->    14 (A") B    
  0.1144       2 (A') A      5 (A") B    ->    17 (A") B    
  0.1114       2 (A') B      5 (A") A    ->    34 (A") B    
  0.1106       2 (A') B      4 (A") A    ->    11 (A") B    
  0.1077       2 (A') A      5 (A") A    ->    15 (A") A    
  0.1062       2 (A') A      4 (A") B    ->    24 (A") B    
 -0.1032       2 (A') B      5 (A") A    ->    36 (A") B    
 -0.1030       2 (A') B      4 (A") A    ->    15 (A") B    
 -0.1014       2 (A') A      4 (A") B    ->    21 (A") B    
  0.1004       2 (A') A      5 (A") B    ->    33 (A") B    

              Summary of significant orbitals:

               Number  Type             Irrep      Energy
               2       Occ  Alpha       2 (A')    -20.5449
               2       Occ  Beta        2 (A')    -20.5449
               28      Occ  Alpha       4 (A")     -0.4384
               29      Occ  Alpha       5 (A")     -0.3712
               28      Occ  Beta        4 (A")     -0.4384
               29      Occ  Beta        5 (A")     -0.3712
               63      Vir  Alpha      15 (A")      0.1553
               46      Vir  Beta       10 (A")      0.0716
               48      Vir  Beta       11 (A")      0.0787
               50      Vir  Beta       12 (A")      0.0859
               55      Vir  Beta       14 (A")      0.1156
               63      Vir  Beta       15 (A")      0.1553
               66      Vir  Beta       16 (A")      0.1722
               68      Vir  Beta       17 (A")      0.1895
               83      Vir  Beta       21 (A")      0.2958
               92      Vir  Beta       23 (A")      0.4099
               94      Vir  Beta       24 (A")      0.4199
               139     Vir  Beta       33 (A")      1.3702
               140     Vir  Beta       34 (A")      1.3933
               142     Vir  Beta       36 (A")      1.4211


 EOMIP transition 5/A'
 Total energy = -393.42623870 a.u.  Excitation energy = 560.2149 eV.
 R1^2 = 0.0000  R2_CCVV^2 = 0.0000  R2_COVV^2 = 1.0000  Res^2 = 1.42e-05
 Conv-d = yes

 Amplitude    Transitions between orbitals
 -0.5501       1 (A') A      5 (A") A    ->    15 (A") A    
  0.5501       1 (A') A      5 (A") B    ->    15 (A") B    
  0.5497       1 (A') B      5 (A") A    ->    15 (A") B    
  0.2613       1 (A') A      5 (A") B    ->    23 (A") B    
  0.2610       1 (A') B      5 (A") A    ->    23 (A") B    
 -0.2609       1 (A') A      5 (A") A    ->    23 (A") A    
 -0.2419       1 (A') A      5 (A") B    ->    18 (A") B    
 -0.2417       1 (A') B      5 (A") A    ->    18 (A") B    
  0.2416       1 (A') A      5 (A") A    ->    18 (A") A    
 -0.1729       1 (A') A      5 (A") A    ->    35 (A") A    
  0.1729       1 (A') A      5 (A") B    ->    35 (A") B    
  0.1727       1 (A') B      5 (A") A    ->    35 (A") B    
  0.1598       1 (A') A      5 (A") B    ->    16 (A") B    
 -0.1597       1 (A') A      5 (A") A    ->    16 (A") A    
  0.1596       1 (A') B      5 (A") A    ->    16 (A") B    
  0.1526       1 (A') A      5 (A") A    ->    17 (A") A    
 -0.1525       1 (A') B      5 (A") A    ->    17 (A") B    
 -0.1525       1 (A') A      5 (A") B    ->    17 (A") B    
 -0.1506       1 (A') A      5 (A") A    ->    11 (A") A    
  0.1505       1 (A') A      5 (A") B    ->    11 (A") B    
  0.1504       1 (A') B      5 (A") A    ->    11 (A") B    
  0.1294       1 (A') B      5 (A") A    ->    21 (A") B    
  0.1293       1 (A') A      5 (A") B    ->    21 (A") B    
 -0.1290       1 (A') A      5 (A") A    ->    21 (A") A    
  0.1286       1 (A') A      5 (A") A    ->    14 (A") A    
 -0.1285       1 (A') B      5 (A") A    ->    14 (A") B    
 -0.1284       1 (A') A      5 (A") B    ->    14 (A") B    
 -0.1117       1 (A') A      4 (A") B    ->    15 (A") B    
  0.1116       1 (A') A      4 (A") A    ->    15 (A") A    
 -0.1115       1 (A') B      4 (A") A    ->    15 (A") B    
  0.1058       1 (A') B      5 (A") A    ->    12 (A") B    
  0.1057       1 (A') A      5 (A") B    ->    12 (A") B    
 -0.1057       1 (A') A      5 (A") A    ->    12 (A") A    
  0.1025       1 (A') A      5 (A") B    ->    24 (A") B    
 -0.1023       1 (A') A      5 (A") A    ->    24 (A") A    
  0.1022       1 (A') B      5 (A") A    ->    24 (A") B    

              Summary of significant orbitals:

               Number  Type             Irrep      Energy
               1       Occ  Alpha       1 (A')    -20.5505
               1       Occ  Beta        1 (A')    -20.5505
               28      Occ  Alpha       4 (A")     -0.4384
               29      Occ  Alpha       5 (A")     -0.3712
               28      Occ  Beta        4 (A")     -0.4384
               29      Occ  Beta        5 (A")     -0.3712
               48      Vir  Alpha      11 (A")      0.0787
               50      Vir  Alpha      12 (A")      0.0859
               55      Vir  Alpha      14 (A")      0.1156
               63      Vir  Alpha      15 (A")      0.1553
               66      Vir  Alpha      16 (A")      0.1722
               68      Vir  Alpha      17 (A")      0.1895
               71      Vir  Alpha      18 (A")      0.2103
               83      Vir  Alpha      21 (A")      0.2958
               92      Vir  Alpha      23 (A")      0.4099
               94      Vir  Alpha      24 (A")      0.4199
               141     Vir  Alpha      35 (A")      1.4063
               48      Vir  Beta       11 (A")      0.0787
               50      Vir  Beta       12 (A")      0.0859
               55      Vir  Beta       14 (A")      0.1156
               63      Vir  Beta       15 (A")      0.1553
               66      Vir  Beta       16 (A")      0.1722
               68      Vir  Beta       17 (A")      0.1895
               71      Vir  Beta       18 (A")      0.2103
               83      Vir  Beta       21 (A")      0.2958
               92      Vir  Beta       23 (A")      0.4099
               94      Vir  Beta       24 (A")      0.4199
               141     Vir  Beta       35 (A")      1.4063


 EOMIP transition 6/A'
 Total energy = -393.40934374 a.u.  Excitation energy = 560.6747 eV.
 R1^2 = 0.0019  R2_CCVV^2 = 0.0000  R2_COVV^2 = 0.9981  Res^2 = 3.83e-05
 Conv-d = yes

 Amplitude    Transitions between orbitals
  0.7375       1 (A') A      5 (A") B    ->    15 (A") B    
 -0.5412       1 (A') B      5 (A") A    ->    15 (A") B    
  0.3652       1 (A') A      5 (A") B    ->    23 (A") B    
 -0.3136       1 (A') A      5 (A") B    ->    18 (A") B    
 -0.2465       1 (A') B      5 (A") A    ->    23 (A") B    
  0.2394       1 (A') B      5 (A") A    ->    18 (A") B    
  0.2336       1 (A') A      5 (A") B    ->    35 (A") B    
 -0.2145       1 (A') A      4 (A") B    ->    15 (A") B    
  0.2139       1 (A') A      5 (A") B    ->    16 (A") B    
 -0.2097       1 (A') A      5 (A") B    ->    17 (A") B    
  0.1976       1 (A') A      5 (A") B    ->    21 (A") B    
  0.1962       1 (A') A      5 (A") A    ->    15 (A") A    
  0.1872       1 (A') A      5 (A") B    ->    11 (A") B    
 -0.1717       1 (A') A      5 (A") B    ->    14 (A") B    
 -0.1583       1 (A') B      5 (A") A    ->    35 (A") B    
 -0.1560       1 (A') B      5 (A") A    ->    16 (A") B    
 -0.1526       1 (A') B      5 (A") A    ->    11 (A") B    
  0.1483       1 (A') B      5 (A") A    ->    17 (A") B    
  0.1371       1 (A') A      5 (A") B    ->    12 (A") B    
  0.1360       1 (A') A      5 (A") B    ->    34 (A") B    
  0.1355       1 (A') A      5 (A") B    ->    24 (A") B    
  0.1294       1 (A') B      4 (A") A    ->    15 (A") B    
  0.1291       1 (A') B      5 (A") A    ->    14 (A") B    
 -0.1241       1 (A') B      5 (A") A    ->    21 (A") B    
  0.1187       1 (A') A      5 (A") A    ->    23 (A") A    
 -0.1060       1 (A') B      5 (A") A    ->    12 (A") B    
 -0.1044       1 (A') A      4 (A") B    ->    23 (A") B    

              Summary of significant orbitals:

               Number  Type             Irrep      Energy
               1       Occ  Alpha       1 (A')    -20.5505
               1       Occ  Beta        1 (A')    -20.5505
               28      Occ  Alpha       4 (A")     -0.4384
               29      Occ  Alpha       5 (A")     -0.3712
               28      Occ  Beta        4 (A")     -0.4384
               29      Occ  Beta        5 (A")     -0.3712
               63      Vir  Alpha      15 (A")      0.1553
               92      Vir  Alpha      23 (A")      0.4099
               48      Vir  Beta       11 (A")      0.0787
               50      Vir  Beta       12 (A")      0.0859
               55      Vir  Beta       14 (A")      0.1156
               63      Vir  Beta       15 (A")      0.1553
               66      Vir  Beta       16 (A")      0.1722
               68      Vir  Beta       17 (A")      0.1895
               71      Vir  Beta       18 (A")      0.2103
               83      Vir  Beta       21 (A")      0.2958
               92      Vir  Beta       23 (A")      0.4099
               94      Vir  Beta       24 (A")      0.4199
               140     Vir  Beta       34 (A")      1.3933
               141     Vir  Beta       35 (A")      1.4063


 EOMIP transition 7/A'
 Total energy = -393.39959354 a.u.  Excitation energy = 560.9400 eV.
 R1^2 = 0.0019  R2_CCVV^2 = 0.0000  R2_COVV^2 = 0.9981  Res^2 = 5.54e-05
 Conv-d = yes

 Amplitude    Transitions between orbitals
 -0.5540       2 (A') A      5 (A") A    ->    11 (A") A    
  0.4702       2 (A') A      5 (A") A    ->    15 (A") A    
 -0.4256       2 (A') B      5 (A") A    ->    11 (A") B    
  0.3368       2 (A') B      5 (A") A    ->    15 (A") B    
 -0.2927       2 (A') A      5 (A") A    ->    21 (A") A    
 -0.2916       2 (A') A      5 (A") A    ->    12 (A") A    
  0.2738       2 (A') A      5 (A") A    ->    16 (A") A    
  0.2715       2 (A') A      5 (A") A    ->    24 (A") A    
 -0.2321       2 (A') A      5 (A") A    ->    23 (A") A    
 -0.2300       2 (A') A      5 (A") A    ->    10 (A") A    
 -0.2245       2 (A') B      5 (A") A    ->    12 (A") B    
  0.2082       2 (A') B      5 (A") A    ->    16 (A") B    
 -0.1942       2 (A') B      5 (A") A    ->    21 (A") B    
 -0.1893       2 (A') A      4 (A") A    ->    11 (A") A    
  0.1839       2 (A') A      4 (A") A    ->    15 (A") A    
  0.1816       2 (A') B      5 (A") A    ->    24 (A") B    
 -0.1798       2 (A') B      5 (A") A    ->    10 (A") B    
 -0.1576       2 (A') A      5 (A") A    ->    14 (A") A    
 -0.1520       2 (A') B      5 (A") A    ->    23 (A") B    
 -0.1339       2 (A') A      5 (A") A    ->    34 (A") A    
  0.1335       2 (A') A      5 (A") B    ->    15 (A") B    
 -0.1285       2 (A') A      5 (A") B    ->    11 (A") B    
  0.1232       2 (A') A      5 (A") A    ->    36 (A") A    
 -0.1174       2 (A') B      5 (A") A    ->    14 (A") B    
  0.1156       2 (A') A      5 (A") A    ->    17 (A") A    
 -0.1066       2 (A') A      4 (A") A    ->    21 (A") A    
  0.1019       2 (A') A      4 (A") A    ->    24 (A") A    
  0.1003       2 (A') A      4 (A") B    ->    15 (A") B    

              Summary of significant orbitals:

               Number  Type             Irrep      Energy
               2       Occ  Alpha       2 (A')    -20.5449
               2       Occ  Beta        2 (A')    -20.5449
               28      Occ  Alpha       4 (A")     -0.4384
               29      Occ  Alpha       5 (A")     -0.3712
               28      Occ  Beta        4 (A")     -0.4384
               29      Occ  Beta        5 (A")     -0.3712
               46      Vir  Alpha      10 (A")      0.0716
               48      Vir  Alpha      11 (A")      0.0787
               50      Vir  Alpha      12 (A")      0.0859
               55      Vir  Alpha      14 (A")      0.1156
               63      Vir  Alpha      15 (A")      0.1553
               66      Vir  Alpha      16 (A")      0.1722
               68      Vir  Alpha      17 (A")      0.1895
[...]
194   6.8024e-18
195   5.6464e-16
196   -6.4047e-17
197   -8.4081e-16
198   -3.1155e-16
199   3.3532e-16
200   -2.7290e-16
201   1.9495e-16
202   -2.2272e-15
203   -5.2863e-16
204   7.4019e-17
205   -5.7792e-16
206   7.5571e-16
207   9.5901e-16
208   -1.3200e-15
209   5.5971e-16
210   -1.6080e-15
211   -3.9177e-17
212   -2.5147e-15
213   5.7495e-16
214   9.5237e-16
215   1.0289e-15
216   -8.2013e-16
217   1.2339e-18
218   3.2339e-16
219   4.8471e-16
220   4.9178e-16
221   -3.8079e-16
222   -2.6556e-16
223   3.1828e-16
224   -1.1545e-15
225   -6.0737e-16
226   3.5538e-16
227   2.1353e-16
228   -1.4618e-15
229   -1.5835e-15
230   1.5289e-15
231   1.1307e-15
232   3.8579e-16
233   -3.2524e-16
234   4.1342e-16
235   -1.4448e-15
236   1.3268e-15
237   3.2627e-16
238   3.7273e-17
239   3.0138e-16
240   -2.0893e-16
241   2.6622e-16
242   -7.6693e-16
243   1.3659e-15
244   -1.2183e-15
245   2.3946e-16
246   3.7323e-16
247   3.5116e-16
248   -2.2076e-15
249   1.3234e-15
250   3.8854e-16
251   -1.5750e-16
252   -9.8709e-17
253   -5.4975e-16
254   -5.8221e-16
255   2.5312e-17
256   -1.3015e-15
257   -3.4062e-16
258   -1.0445e-16
259   1.0570e-15
260   -4.7762e-16
261   6.1607e-18
262   1.1083e-15
263   3.6090e-16
264   -4.6196e-16
265   7.2473e-16
266   -3.3732e-19
267   -6.6350e-16
268   -8.1093e-16
269   -9.8110e-17
270   -9.9474e-16
271   -4.2079e-16
272   5.4728e-17
273   7.5252e-17

Decomposition over AOs for the right alpha Dyson orbital:
-7.60780585e-10
1.37014613e-09
-4.64204596e-08
5.01010474e-08
-1.52517741e-06
-6.09275942e-06
3.01078929e-06
1.64951553e-06
-5.44388826e-07
7.77949616e-16
1.79522940e-05
-1.70804195e-05
4.96500295e-06
2.55838270e-15
-1.39426649e-04
-2.56908861e-05
-1.42438633e-04
-4.47901451e-16
-2.94142765e-03
-7.59739622e-06
-1.20729094e-03
4.68789467e-14
-3.34730010e-04
-2.44607079e-04
2.00153705e-04
1.25194650e-14
-8.02965519e-06
-1.04060931e-16
2.60769611e-06
-4.32599376e-16
-4.54486213e-06
6.86491187e-06
-1.22516381e-05
-2.48618360e-05
9.16985943e-05
3.33932969e-06
-8.20907505e-06
1.06612505e-15
1.30790379e-06
-1.93695714e-05
-1.06780545e-04
-7.55471965e-04
-1.21546850e-06
-3.48050362e-06
2.53462140e-16
5.33574639e-06
9.55208565e-07
-9.77460315e-05
1.21983971e-04
8.70179173e-06
4.85348171e-07
-3.12578162e-16
-8.90077191e-09
-1.29006498e-07
-2.74667035e-07
-3.22690366e-06
-7.06181905e-06
-1.20062618e-04
-1.45633545e-05
-3.50666100e-05
2.16046250e-05
2.43623835e-15
4.45342346e-04
-4.53388661e-04
2.72571043e-04
-9.02232226e-16
-8.88867569e-04
4.77035457e-04
-2.89029300e-04
6.21658025e-15
-2.11863909e-03
2.73764757e-03
-1.74189387e-03
4.89149275e-14
1.42482687e-03
1.14948396e-04
2.45043874e-04
4.14434575e-15
-2.43725171e-04
-6.29000035e-16
-8.00457765e-05
-1.10883484e-15
1.27402262e-04
1.04338533e-03
7.93716056e-03
3.89182418e-02
1.32450711e-01
3.27818971e-01
1.55451461e-01
4.71078386e-01
1.59244601e-03
-9.74627993e-04
1.00910763e-15
4.93682263e-03
-7.42481888e-04
4.52617247e-04
6.66607435e-16
-5.83508627e-04
4.10444960e-04
-2.50771814e-04
5.25561198e-15
3.25094045e-03
2.36533031e-04
-1.44745946e-04
-5.83301369e-15
7.62171570e-03
1.40755219e-03
-6.94886262e-04
5.25084711e-15
8.60043139e-05
-7.74735261e-16
-7.52545437e-05
1.75261259e-16
-4.74628331e-05
-5.72510172e-10
5.56163623e-09
-4.34165139e-08
1.56671242e-07
-1.47771829e-06
-3.08158709e-06
3.75768019e-06
1.06547191e-06
-1.97911845e-07
-1.87615976e-15
4.03112131e-06
-2.42506334e-05
-5.98699605e-06
9.12828411e-16
8.49436211e-05
2.46635231e-04
1.63796689e-04
-9.44817222e-15
-1.84852041e-03
1.21356021e-03
4.48683707e-04
6.64093925e-14
-4.13785523e-04
1.86903845e-04
-2.75030356e-04
4.68646823e-14
-3.61348440e-06
-9.28452774e-16
1.68942463e-06
-1.15267826e-15
2.19673988e-06
-3.11251210e-05
-2.36768310e-04
-1.16097596e-03
-3.95102935e-03
-9.77991516e-03
-4.64025231e-03
-1.40507344e-02
4.81164151e-05
2.77644410e-05
-7.51030351e-16
-1.35742707e-04
-2.71267976e-05
-1.32288588e-05
-2.88785488e-15
-7.35459060e-05
6.76271347e-05
3.07770266e-05
9.09970512e-16
-5.45377651e-04
4.67663937e-05
7.65306956e-05
-8.95028451e-15
-2.57401307e-03
4.18656803e-04
9.05621543e-05
-1.51047054e-14
1.12477825e-06
-1.68216884e-16
4.46663432e-06
-4.67751921e-17
9.12741508e-07
-1.28958024e-09
2.43386968e-08
-1.23655016e-07
5.35846487e-07
-6.62951253e-06
-2.68913652e-05
1.83574023e-05
1.72468158e-05
-1.53117371e-06
1.74541925e-15
3.84595464e-05
-5.67286997e-05
-2.97771248e-07
-5.75035803e-15
1.72582037e-05
1.48051118e-05
-1.72672803e-05
1.38652263e-14
1.95553769e-04
-3.57138786e-05
2.10135425e-04
-4.05340343e-14
-1.35849549e-03
2.41874572e-03
-7.42974099e-05
-4.33143706e-14
4.26829956e-06
-3.88395098e-16
-4.31414382e-06
-1.22773745e-15
3.06664052e-05
-1.30774680e-09
2.74911097e-08
-1.31671697e-07
6.00809548e-07
-7.23400375e-06
-2.94725795e-05
2.01400881e-05
8.71164390e-06
-1.47751163e-05
3.00400458e-15
4.42361313e-05
-2.38806074e-05
5.13440691e-05
-1.69257791e-15
-1.15279312e-05
4.76073724e-06
-2.02937227e-05
1.57205424e-14
1.73798319e-04
-6.65349180e-05
-1.48181863e-05
-3.59560841e-14
-1.92117840e-03
3.71651368e-04
-7.66590193e-04
-1.44592563e-14
-2.02904627e-05
2.06703647e-16
-4.11907499e-06
1.82588172e-17
-2.37861572e-05
-6.33816557e-12
-2.77317248e-10
2.29024696e-10
-8.47441847e-09
-2.64401221e-08
-7.72210936e-07
7.75011246e-08
1.52146447e-06
3.63440486e-07
4.20549271e-16
-2.91507584e-07
-1.41352799e-05
-1.05240895e-06
6.60737487e-16
2.31277375e-04
-1.40764087e-04
7.99426015e-05
4.94769194e-15
3.17718270e-03
-7.73966294e-04
4.15193169e-04
-5.05642948e-14
-1.30031783e-04
-1.19863134e-04
-2.87417639e-04
-3.24801426e-14
4.59092250e-06
-3.15038762e-16
1.28709471e-06
-6.39320833e-16
1.48818696e-06
4.24039815e-07
2.28064707e-05
5.73707469e-05
9.84569939e-05
-3.18585513e-06
2.33531183e-06
-1.14665995e-16
   *****

     End transition

 Dyson orbitals calculation:   CPU 4.48 s  wall 2.44 s

 Total ccman2 time:   CPU 22193.64 s  wall 9075.11 s


 --------------------------------------------------------------
             Orbital Energies (a.u.) and Symmetries
 --------------------------------------------------------------

 Alpha MOs, Restricted
 -- Occupied --                  
-20.550 -20.545 -15.649 -15.632 -11.427 -11.388 -11.346 -11.261
  1 A'    2 A'    3 A'    4 A'    5 A'    6 A'    7 A'    8 A'                 
 -1.442  -1.404  -1.318  -1.250  -1.093  -0.938  -0.906  -0.812
  9 A'   10 A'   11 A'   12 A'   13 A'   14 A'   15 A'   16 A'                 
 -0.770  -0.718  -0.681  -0.671  -0.657  -0.619  -0.605  -0.573
 17 A'   18 A'   19 A'    1 A"   20 A'   21 A'   22 A'    2 A"                 
 -0.528  -0.487  -0.452  -0.438  -0.371
  3 A"   23 A'   24 A'    4 A"    5 A"                                         
 -- Virtual --                   
  0.005   0.019   0.020   0.022   0.031   0.033   0.035   0.036
 25 A'   26 A'    6 A"   27 A'   28 A'   29 A'   30 A'    7 A"                 
  0.038   0.046   0.047   0.049   0.053   0.054   0.055   0.068
  8 A"   31 A'   32 A'   33 A'   34 A'    9 A"   35 A'   36 A'                 
  0.072   0.072   0.079   0.085   0.086   0.088   0.095   0.097
 10 A"   37 A'   11 A"   38 A'   12 A"   39 A'   40 A'   41 A'                 
  0.112   0.116   0.118   0.120   0.127   0.131   0.134   0.137
 13 A"   14 A"   42 A'   43 A'   44 A'   45 A'   46 A'   47 A'                 
  0.138   0.155   0.162   0.164   0.172   0.184   0.189   0.195
 48 A'   15 A"   49 A'   50 A'   16 A"   51 A'   17 A"   52 A'                 
  0.209   0.210   0.224   0.230   0.235   0.241   0.243   0.260
 53 A'   18 A"   54 A'   55 A'   56 A'   19 A"   57 A'   58 A'                 
  0.266   0.270   0.278   0.279   0.286   0.296   0.300   0.333
 59 A'   60 A'   20 A"   61 A'   62 A'   21 A"   63 A'   22 A"                 
  0.333   0.347   0.373   0.388   0.391   0.405   0.410   0.410
 64 A'   65 A'   66 A'   67 A'   68 A'   69 A'   23 A"   70 A'                 
  0.420   0.422   0.441   0.449   0.455   0.463   0.481   0.482
 24 A"   71 A'   72 A'   73 A'   74 A'   75 A'   76 A'   77 A'                 
  0.505   0.529   0.545   0.558   0.615   0.630   0.655   0.706
 78 A'   79 A'   80 A'   81 A'   82 A'   83 A'   84 A'   85 A'                 
  0.734   0.740   0.761   0.776   0.778   0.799   0.822   0.824
 86 A'   25 A"   87 A'   26 A"   88 A'   27 A"   28 A"   89 A'                 
  0.878   0.888   0.938   0.963   0.971   0.979   1.008   1.015
 90 A'   91 A'   92 A'   93 A'   94 A'   95 A'   96 A'   97 A'                 
  1.029   1.042   1.061   1.093   1.100   1.114   1.159   1.227
 98 A'   29 A"   99 A'   30 A"  100 A'  101 A'  102 A'   31 A"                 
  1.242   1.245   1.270   1.301   1.368   1.370   1.393   1.406
 32 A"  103 A'  104 A'  105 A'  106 A'   33 A"   34 A"   35 A"                 
  1.421   1.441   1.460   1.464   1.513   1.515   1.543   1.557
 36 A"  107 A'  108 A'   37 A"   38 A"  109 A'  110 A'  111 A'                 
  1.583   1.760   1.777   1.803   1.814   1.877   1.899   1.915
112 A'  113 A'  114 A'  115 A'   39 A"  116 A'   40 A"  117 A'                 
  1.929   1.952   1.980   2.013   2.014   2.067   2.124   2.143
 41 A"  118 A'  119 A'   42 A"  120 A'  121 A'  122 A'  123 A'                 
  2.186   2.223   2.236   2.283   2.299   2.340   2.358   2.532
124 A'   43 A"  125 A'  126 A'  127 A'   44 A"  128 A'  129 A'                 
  2.566   2.589   2.643   2.668   2.728   2.807   2.822   2.851
 45 A"  130 A'   46 A"  131 A'   47 A"  132 A'   48 A"  133 A'                 
  2.932   2.957   3.006   3.019   3.048   3.094   3.168   3.181
134 A'  135 A'  136 A'  137 A'  138 A'   49 A"   50 A"  139 A'                 
  3.184   3.211   3.263   3.271   3.297   3.310   3.325   3.347
 51 A"  140 A'   52 A"  141 A'  142 A'   53 A"  143 A'   54 A"                 
  3.401   3.515   3.588   3.756   3.766   3.819   3.840   3.876
144 A'  145 A'  146 A'   55 A"   56 A"  147 A'  148 A'  149 A'                 
  3.914   3.959   4.017   4.049   4.106   4.288   4.305   4.364
150 A'  151 A'  152 A'  153 A'  154 A'  155 A'   57 A"   58 A"                 
  4.411   4.485   4.605   5.012   5.158   5.288   5.441   5.553
156 A'  157 A'  158 A'  159 A'  160 A'  161 A'  162 A'  163 A'                 
  5.625   5.633   5.690   5.713   5.782   5.864   5.902   6.438
 59 A"   60 A"  164 A'  165 A'  166 A'  167 A'  168 A'  169 A'                 
  6.445   7.668   7.729   9.888   9.934  20.639  20.695  20.726
170 A'  171 A'  172 A'  173 A'  174 A'  175 A'  176 A'  177 A'                 
 20.897  30.195  30.235  40.894  40.935  80.190  80.235  80.273
178 A'  179 A'  180 A'  181 A'  182 A'  183 A'  184 A'  185 A'                 
 80.428 116.314 116.350 159.240 159.273 322.013 322.053 322.094
186 A'  187 A'  188 A'  189 A'  190 A'  191 A'  192 A'  193 A'                 
322.233 460.413 460.445 631.938 631.9651431.5641431.6041431.646
194 A'  195 A'  196 A'  197 A'  198 A'  199 A'  200 A'  201 A'                 
*******2012.8872012.9162759.3342759.3578749.7838749.8248749.866
202 A'  203 A'  204 A'  205 A'  206 A'  207 A'  208 A'  209 A'                 
***************************************
210 A'  211 A'  212 A'  213 A'  214 A'                                         

 Beta MOs, Restricted
 -- Occupied --                  
-20.550 -20.545 -15.649 -15.632 -11.427 -11.388 -11.346 -11.261
  1 A'    2 A'    3 A'    4 A'    5 A'    6 A'    7 A'    8 A'                 
 -1.442  -1.404  -1.318  -1.250  -1.093  -0.938  -0.906  -0.812
  9 A'   10 A'   11 A'   12 A'   13 A'   14 A'   15 A'   16 A'                 
 -0.770  -0.718  -0.681  -0.671  -0.657  -0.619  -0.605  -0.573
 17 A'   18 A'   19 A'    1 A"   20 A'   21 A'   22 A'    2 A"                 
 -0.528  -0.487  -0.452  -0.438  -0.371
  3 A"   23 A'   24 A'    4 A"    5 A"                                         
 -- Virtual --                   
  0.005   0.019   0.020   0.022   0.031   0.033   0.035   0.036
 25 A'   26 A'    6 A"   27 A'   28 A'   29 A'   30 A'    7 A"                 
  0.038   0.046   0.047   0.049   0.053   0.054   0.055   0.068
  8 A"   31 A'   32 A'   33 A'   34 A'    9 A"   35 A'   36 A'                 
  0.072   0.072   0.079   0.085   0.086   0.088   0.095   0.097
 10 A"   37 A'   11 A"   38 A'   12 A"   39 A'   40 A'   41 A'                 
  0.112   0.116   0.118   0.120   0.127   0.131   0.134   0.137
 13 A"   14 A"   42 A'   43 A'   44 A'   45 A'   46 A'   47 A'                 
  0.138   0.155   0.162   0.164   0.172   0.184   0.189   0.195
 48 A'   15 A"   49 A'   50 A'   16 A"   51 A'   17 A"   52 A'                 
  0.209   0.210   0.224   0.230   0.235   0.241   0.243   0.260
 53 A'   18 A"   54 A'   55 A'   56 A'   19 A"   57 A'   58 A'                 
  0.266   0.270   0.278   0.279   0.286   0.296   0.300   0.333
 59 A'   60 A'   20 A"   61 A'   62 A'   21 A"   63 A'   22 A"                 
  0.333   0.347   0.373   0.388   0.391   0.405   0.410   0.410
 64 A'   65 A'   66 A'   67 A'   68 A'   69 A'   23 A"   70 A'                 
  0.420   0.422   0.441   0.449   0.455   0.463   0.481   0.482
 24 A"   71 A'   72 A'   73 A'   74 A'   75 A'   76 A'   77 A'                 
  0.505   0.529   0.545   0.558   0.615   0.630   0.655   0.706
 78 A'   79 A'   80 A'   81 A'   82 A'   83 A'   84 A'   85 A'                 
  0.734   0.740   0.761   0.776   0.778   0.799   0.822   0.824
 86 A'   25 A"   87 A'   26 A"   88 A'   27 A"   28 A"   89 A'                 
  0.878   0.888   0.938   0.963   0.971   0.979   1.008   1.015
 90 A'   91 A'   92 A'   93 A'   94 A'   95 A'   96 A'   97 A'                 
  1.029   1.042   1.061   1.093   1.100   1.114   1.159   1.227
 98 A'   29 A"   99 A'   30 A"  100 A'  101 A'  102 A'   31 A"                 
  1.242   1.245   1.270   1.301   1.368   1.370   1.393   1.406
 32 A"  103 A'  104 A'  105 A'  106 A'   33 A"   34 A"   35 A"                 
  1.421   1.441   1.460   1.464   1.513   1.515   1.543   1.557
 36 A"  107 A'  108 A'   37 A"   38 A"  109 A'  110 A'  111 A'                 
  1.583   1.760   1.777   1.803   1.814   1.877   1.899   1.915
112 A'  113 A'  114 A'  115 A'   39 A"  116 A'   40 A"  117 A'                 
  1.929   1.952   1.980   2.013   2.014   2.067   2.124   2.143
 41 A"  118 A'  119 A'   42 A"  120 A'  121 A'  122 A'  123 A'                 
  2.186   2.223   2.236   2.283   2.299   2.340   2.358   2.532
124 A'   43 A"  125 A'  126 A'  127 A'   44 A"  128 A'  129 A'                 
  2.566   2.589   2.643   2.668   2.728   2.807   2.822   2.851
 45 A"  130 A'   46 A"  131 A'   47 A"  132 A'   48 A"  133 A'                 
  2.932   2.957   3.006   3.019   3.048   3.094   3.168   3.181
134 A'  135 A'  136 A'  137 A'  138 A'   49 A"   50 A"  139 A'                 
  3.184   3.211   3.263   3.271   3.297   3.310   3.325   3.347
 51 A"  140 A'   52 A"  141 A'  142 A'   53 A"  143 A'   54 A"                 
  3.401   3.515   3.588   3.756   3.766   3.819   3.840   3.876
144 A'  145 A'  146 A'   55 A"   56 A"  147 A'  148 A'  149 A'                 
  3.914   3.959   4.017   4.049   4.106   4.288   4.305   4.364
150 A'  151 A'  152 A'  153 A'  154 A'  155 A'   57 A"   58 A"                 
  4.411   4.485   4.605   5.012   5.158   5.288   5.441   5.553
156 A'  157 A'  158 A'  159 A'  160 A'  161 A'  162 A'  163 A'                 
  5.625   5.633   5.690   5.713   5.782   5.864   5.902   6.438
 59 A"   60 A"  164 A'  165 A'  166 A'  167 A'  168 A'  169 A'                 
  6.445   7.668   7.729   9.888   9.934  20.639  20.695  20.726
170 A'  171 A'  172 A'  173 A'  174 A'  175 A'  176 A'  177 A'                 
 20.897  30.195  30.235  40.894  40.935  80.190  80.235  80.273
178 A'  179 A'  180 A'  181 A'  182 A'  183 A'  184 A'  185 A'                 
 80.428 116.314 116.350 159.240 159.273 322.013 322.053 322.094
186 A'  187 A'  188 A'  189 A'  190 A'  191 A'  192 A'  193 A'                 
322.233 460.413 460.445 631.938 631.9651431.5641431.6041431.646
194 A'  195 A'  196 A'  197 A'  198 A'  199 A'  200 A'  201 A'                 
*******2012.8872012.9162759.3342759.3578749.7838749.8248749.866
202 A'  203 A'  204 A'  205 A'  206 A'  207 A'  208 A'  209 A'                 
***************************************
210 A'  211 A'  212 A'  213 A'  214 A'                                         
 --------------------------------------------------------------

          Ground-State Mulliken Net Atomic Charges

     Atom                 Charge (a.u.)
  ----------------------------------------
      1 C                     0.041345
      2 H                     0.361959
      3 H                     0.163670
      4 H                     0.394985
      5 C                     0.245726
      6 O                    -0.078193
      7 C                     0.021288
      8 O                    -0.118248
      9 N                    -0.604359
     10 N                    -0.410869
     11 C                    -0.261285
     12 H                     0.243982
  ----------------------------------------
  Sum of atomic charges =     0.000000

 -----------------------------------------------------------------
                    Cartesian Multipole Moments
 -----------------------------------------------------------------
    Charge (ESU x 10^10)
                 0.0000
    Dipole Moment (Debye)
         X      -1.3839      Y      -4.9543      Z       0.0000
       Tot       5.1439
    Quadrupole Moments (Debye-Ang)
        XX     -60.6807     XY       2.5027     YY     -38.3445
        XZ       0.0000     YZ      -0.0000     ZZ     -46.9509
    Octopole Moments (Debye-Ang^2)
       XXX     -11.3708    XXY     -34.8372    XYY      -5.2065
       YYY      -9.0564    XXZ       0.0000    XYZ      -0.0000
       YYZ       0.0000    XZZ      -1.9200    YZZ       4.3285
       ZZZ       0.0000
    Hexadecapole Moments (Debye-Ang^3)
      XXXX    -728.3246   XXXY      12.7275   XXYY    -177.0147
      XYYY      13.2604   YYYY    -304.5155   XXXZ      -0.0000
      XXYZ      -0.0000   XYYZ       0.0000   YYYZ      -0.0000
      XXZZ    -114.2361   XYZZ       2.9662   YYZZ     -75.7730
      XZZZ       0.0000   YZZZ      -0.0000   ZZZZ     -47.0015
 -----------------------------------------------------------------
Archival summary:
1\1\n-62-29-32\SP\ProcedureUnspecified\BasisUnspecified\2244\malop\MonJun320:37:322019MonJun320:37:322019\0\\#,ProcedureUnspecified,BasisUnspecified,\\0,1\N\H,1,1.01081\C,1,1.37966,2,115.327\O,3,1.21479,1,124.21,2,0,0\N,3,1.3852,1,112.713,2,180,0\H,5,1.00619,3,115.142,1,-180,0\C,5,1.37008,3,123.626,1,-0,0\H,7,1.07981,5,115.516,3,180,0\C,7,1.34802,5,121.979,3,-0,0\H,9,1.07615,7,121.525,5,-180,0\C,1,1.40335,2,116.035,3,-180,0\O,11,1.21832,1,120.541,2,0,0\\HF=-412.580334\\@

 Total job time:  9133.19s(wall), 22375.06s(cpu) 
 Mon Jun  3 20:37:32 2019

======= MOLDEN-FORMATTED INPUT FILE FOLLOWS =======
[Molden Format]
[Atoms] (Angs)
  C      1    6     -0.00714236     -1.70213747     -0.00000000
  H      2    1     -2.06882847     -1.44022412      0.00000000
  H      3    1     -0.12337987     -2.77567521      0.00000000
  H      4    1      0.04651892      1.98813947     -0.00000000
  C      5    6     -1.21953563      0.40211669      0.00000000
  O      6    8     -2.25921553      1.03043814      0.00000000
  C      7    6      1.28797806      0.34644937     -0.00000000
  O      8    8      2.31273661      1.00537216     -0.00000000
  N      9    7      0.03446295      0.97739857     -0.00000000
  N     10    7     -1.17287765     -0.98229824      0.00000000
  C     11    6      1.20107039     -1.10433419     -0.00000000
  H     12    1      2.11220096     -1.67699125     -0.00000000

======= END OF MOLDEN-FORMATTED INPUT FILE =======


        *************************************************************
        *                                                           *
        *  Thank you very much for using Q-Chem.  Have a nice day.  *
        *                                                           *
        *************************************************************


