[Molden Format]
[Atoms] (Angs)
  C      1    6     -0.13173890     -1.79208980     -0.00000000
  H      2    1     -2.14962000     -1.30978739     -0.00000000
  H      3    1     -0.31599560     -2.86503115     -0.00000000
  H      4    1      0.14407746      2.04280963     -0.00000000
  C      5    6     -1.17258876      0.48030861     -0.00000000
  O      6    8     -2.25008207      1.06833796     -0.00000000
  C      7    6      1.31158357      0.28308717      0.00000000
  O      8    8      2.36361668      0.96389345      0.00000000
  N      9    7      0.07017030      1.03138997     -0.00000000
  N     10    7     -1.19586868     -0.94982644     -0.00000000
  C     11    6      1.19165158     -1.13169473      0.00000000
  H     12    1      2.09970506     -1.73445456      0.00000000
[GTO]
1    0
S    1    1.000000
   4.56324000E+03    1.96665000E-03 
S    1    1.000000
   6.82024000E+02    1.52306000E-02 
S    1    1.000000
   1.54973000E+02    7.61269000E-02 
S    1    1.000000
   4.44553000E+01    2.60801000E-01 
S    1    1.000000
   1.30290000E+01    6.16462000E-01 
S    1    1.000000
   1.82773000E+00    2.21006000E-01 
SP   3    1.000000
   2.09642000E+01    1.14660000E-01   4.02487000E-02 
   4.80331000E+00    9.19999000E-01   2.37594000E-01 
   1.45933000E+00   -3.03068000E-03   8.15854000E-01 
SP   1    1.000000
   4.83456000E-01    1.00000000E+00   1.00000000E+00 
SP   1    1.000000
   1.45585000E-01    1.00000000E+00   1.00000000E+00 
SP   1    1.000000
   4.38000000E-02    1.00000000E+00   1.00000000E+00 
SP   1    1.000000
   1.31927711E-02    1.00000000E+00   1.00000000E+00 
D    1    1.000000
   6.26000000E-01    1.00000000E+00 

2    0
S    3    1.000000
   3.38650000E+01    2.54938000E-02 
   5.09479000E+00    1.90373000E-01 
   1.15879000E+00    8.52161000E-01 
S    1    1.000000
   3.25840000E-01    1.00000000E+00 
S    1    1.000000
   1.02741000E-01    1.00000000E+00 
S    1    1.000000
   3.60000000E-02    1.00000000E+00 
P    1    1.000000
   7.50000000E-01    1.00000000E+00 

3    0
S    3    1.000000
   3.38650000E+01    2.54938000E-02 
   5.09479000E+00    1.90373000E-01 
   1.15879000E+00    8.52161000E-01 
S    1    1.000000
   3.25840000E-01    1.00000000E+00 
S    1    1.000000
   1.02741000E-01    1.00000000E+00 
S    1    1.000000
   3.60000000E-02    1.00000000E+00 
P    1    1.000000
   7.50000000E-01    1.00000000E+00 

4    0
S    3    1.000000
   3.38650000E+01    2.54938000E-02 
   5.09479000E+00    1.90373000E-01 
   1.15879000E+00    8.52161000E-01 
S    1    1.000000
   3.25840000E-01    1.00000000E+00 
S    1    1.000000
   1.02741000E-01    1.00000000E+00 
S    1    1.000000
   3.60000000E-02    1.00000000E+00 
P    1    1.000000
   7.50000000E-01    1.00000000E+00 

5    0
S    1    1.000000
   4.56324000E+03    1.96665000E-03 
S    1    1.000000
   6.82024000E+02    1.52306000E-02 
S    1    1.000000
   1.54973000E+02    7.61269000E-02 
S    1    1.000000
   4.44553000E+01    2.60801000E-01 
S    1    1.000000
   1.30290000E+01    6.16462000E-01 
S    1    1.000000
   1.82773000E+00    2.21006000E-01 
SP   3    1.000000
   2.09642000E+01    1.14660000E-01   4.02487000E-02 
   4.80331000E+00    9.19999000E-01   2.37594000E-01 
   1.45933000E+00   -3.03068000E-03   8.15854000E-01 
SP   1    1.000000
   4.83456000E-01    1.00000000E+00   1.00000000E+00 
SP   1    1.000000
   1.45585000E-01    1.00000000E+00   1.00000000E+00 
SP   1    1.000000
   4.38000000E-02    1.00000000E+00   1.00000000E+00 
SP   1    1.000000
   1.31927711E-02    1.00000000E+00   1.00000000E+00 
D    1    1.000000
   6.26000000E-01    1.00000000E+00 

6    0
S    1    1.000000
   8.58850000E+03    1.89515000E-03 
S    1    1.000000
   1.29723000E+03    1.43859000E-02 
S    1    1.000000
   2.99296000E+02    7.07320000E-02 
S    1    1.000000
   8.73771000E+01    2.40001000E-01 
S    1    1.000000
   2.56789000E+01    5.94797000E-01 
S    1    1.000000
   3.74004000E+00    2.80802000E-01 
SP   3    1.000000
   4.21175000E+01    1.13889000E-01   3.65114000E-02 
   9.62837000E+00    9.20811000E-01   2.37153000E-01 
   2.85332000E+00   -3.27447000E-03   8.19702000E-01 
SP   1    1.000000
   9.05661000E-01    1.00000000E+00   1.00000000E+00 
SP   1    1.000000
   2.55611000E-01    1.00000000E+00   1.00000000E+00 
SP   1    1.000000
   8.45000000E-02    1.00000000E+00   1.00000000E+00 
SP   1    1.000000
   2.54518072E-02    1.00000000E+00   1.00000000E+00 
D    1    1.000000
   1.29200000E+00    1.00000000E+00 

7    0
S    1    1.000000
   4.56324000E+03    1.96665000E-03 
S    1    1.000000
   6.82024000E+02    1.52306000E-02 
S    1    1.000000
   1.54973000E+02    7.61269000E-02 
S    1    1.000000
   4.44553000E+01    2.60801000E-01 
S    1    1.000000
   1.30290000E+01    6.16462000E-01 
S    1    1.000000
   1.82773000E+00    2.21006000E-01 
SP   3    1.000000
   2.09642000E+01    1.14660000E-01   4.02487000E-02 
   4.80331000E+00    9.19999000E-01   2.37594000E-01 
   1.45933000E+00   -3.03068000E-03   8.15854000E-01 
SP   1    1.000000
   4.83456000E-01    1.00000000E+00   1.00000000E+00 
SP   1    1.000000
   1.45585000E-01    1.00000000E+00   1.00000000E+00 
SP   1    1.000000
   4.38000000E-02    1.00000000E+00   1.00000000E+00 
SP   1    1.000000
   1.31927711E-02    1.00000000E+00   1.00000000E+00 
D    1    1.000000
   6.26000000E-01    1.00000000E+00 

8    0
S    1    1.000000
   8.58850000E+03    1.89515000E-03 
S    1    1.000000
   1.29723000E+03    1.43859000E-02 
S    1    1.000000
   2.99296000E+02    7.07320000E-02 
S    1    1.000000
   8.73771000E+01    2.40001000E-01 
S    1    1.000000
   2.56789000E+01    5.94797000E-01 
S    1    1.000000
   3.74004000E+00    2.80802000E-01 
SP   3    1.000000
   4.21175000E+01    1.13889000E-01   3.65114000E-02 
   9.62837000E+00    9.20811000E-01   2.37153000E-01 
   2.85332000E+00   -3.27447000E-03   8.19702000E-01 
SP   1    1.000000
   9.05661000E-01    1.00000000E+00   1.00000000E+00 
SP   1    1.000000
   2.55611000E-01    1.00000000E+00   1.00000000E+00 
SP   1    1.000000
   8.45000000E-02    1.00000000E+00   1.00000000E+00 
SP   1    1.000000
   2.54518072E-02    1.00000000E+00   1.00000000E+00 
D    1    1.000000
   1.29200000E+00    1.00000000E+00 

9    0
S    1    1.000000
   6.29348000E+03    1.96979000E-03 
S    1    1.000000
   9.49044000E+02    1.49613000E-02 
S    1    1.000000
   2.18776000E+02    7.35006000E-02 
S    1    1.000000
   6.36916000E+01    2.48937000E-01 
S    1    1.000000
   1.88282000E+01    6.02460000E-01 
S    1    1.000000
   2.72023000E+00    2.56202000E-01 
SP   3    1.000000
   3.06331000E+01    1.11906000E-01   3.83119000E-02 
   7.02614000E+00    9.21666000E-01   2.37403000E-01 
   2.11205000E+00   -2.56919000E-03   8.17592000E-01 
SP   1    1.000000
   6.84009000E-01    1.00000000E+00   1.00000000E+00 
SP   1    1.000000
   2.00878000E-01    1.00000000E+00   1.00000000E+00 
SP   1    1.000000
   6.39000000E-02    1.00000000E+00   1.00000000E+00 
SP   1    1.000000
   1.92469880E-02    1.00000000E+00   1.00000000E+00 
D    1    1.000000
   9.13000000E-01    1.00000000E+00 

10    0
S    1    1.000000
   6.29348000E+03    1.96979000E-03 
S    1    1.000000
   9.49044000E+02    1.49613000E-02 
S    1    1.000000
   2.18776000E+02    7.35006000E-02 
S    1    1.000000
   6.36916000E+01    2.48937000E-01 
S    1    1.000000
   1.88282000E+01    6.02460000E-01 
S    1    1.000000
   2.72023000E+00    2.56202000E-01 
SP   3    1.000000
   3.06331000E+01    1.11906000E-01   3.83119000E-02 
   7.02614000E+00    9.21666000E-01   2.37403000E-01 
   2.11205000E+00   -2.56919000E-03   8.17592000E-01 
SP   1    1.000000
   6.84009000E-01    1.00000000E+00   1.00000000E+00 
SP   1    1.000000
   2.00878000E-01    1.00000000E+00   1.00000000E+00 
SP   1    1.000000
   6.39000000E-02    1.00000000E+00   1.00000000E+00 
SP   1    1.000000
   1.92469880E-02    1.00000000E+00   1.00000000E+00 
D    1    1.000000
   9.13000000E-01    1.00000000E+00 

11    0
S    1    1.000000
   4.56324000E+03    1.96665000E-03 
S    1    1.000000
   6.82024000E+02    1.52306000E-02 
S    1    1.000000
   1.54973000E+02    7.61269000E-02 
S    1    1.000000
   4.44553000E+01    2.60801000E-01 
S    1    1.000000
   1.30290000E+01    6.16462000E-01 
S    1    1.000000
   1.82773000E+00    2.21006000E-01 
SP   3    1.000000
   2.09642000E+01    1.14660000E-01   4.02487000E-02 
   4.80331000E+00    9.19999000E-01   2.37594000E-01 
   1.45933000E+00   -3.03068000E-03   8.15854000E-01 
SP   1    1.000000
   4.83456000E-01    1.00000000E+00   1.00000000E+00 
SP   1    1.000000
   1.45585000E-01    1.00000000E+00   1.00000000E+00 
SP   1    1.000000
   4.38000000E-02    1.00000000E+00   1.00000000E+00 
SP   1    1.000000
   1.31927711E-02    1.00000000E+00   1.00000000E+00 
D    1    1.000000
   6.26000000E-01    1.00000000E+00 

12    0
S    3    1.000000
   3.38650000E+01    2.54938000E-02 
   5.09479000E+00    1.90373000E-01 
   1.15879000E+00    8.52161000E-01 
S    1    1.000000
   3.25840000E-01    1.00000000E+00 
S    1    1.000000
   1.02741000E-01    1.00000000E+00 
S    1    1.000000
   3.60000000E-02    1.00000000E+00 
P    1    1.000000
   7.50000000E-01    1.00000000E+00 

[MO]
Sym=X
Ene=0.923841
Spin=Alpha
Occup=1
    9.0068853e-10
    -2.44580373e-09
    5.6730627e-08
    -7.59195926e-08
    1.97503795e-06
    8.19546295e-06
    -4.08943884e-06
    -9.66046385e-07
    8.93445516e-07
    6.17967912e-16
    -2.07230335e-05
    1.23259264e-05
    -9.74758451e-06
    1.41360958e-15
    8.09436821e-05
    -5.68930109e-07
    8.33758607e-05
    2.2776119e-15
    0.00213055674
    5.56391229e-05
    0.000823331771
    -1.11511543e-14
    -4.06925552e-05
    0.000145152766
    -0.000144939635
    1.88450992e-14
    6.82175747e-06
    1.35711843e-16
    -1.23310182e-06
    1.00434905e-15
    4.35204734e-06
    -8.14513081e-06
    2.4009868e-05
    6.06900578e-05
    -0.000110145302
    -2.95769677e-06
    8.92999805e-06
    -9.12169462e-16
    -1.16699649e-06
    1.04737426e-05
    5.89775627e-05
    0.000524278939
    1.36596154e-06
    1.98071249e-06
    1.56680014e-16
    -5.89979172e-06
    9.60256815e-07
    6.23597292e-05
    -5.08664029e-05
    -9.6705065e-06
    6.36507602e-07
    -5.83670138e-16
    1.1658848e-08
    1.07941552e-07
    4.7620536e-07
    2.66943206e-06
    1.49323207e-05
    0.000147189212
    -4.01060794e-06
    2.78713302e-05
    -1.40274647e-05
    -1.98874099e-15
    -0.000471955164
    0.000488367998
    -0.000261591484
    -5.32605983e-15
    0.0008481863
    -0.000473749744
    0.000326656678
    -5.26000861e-15
    0.00228986121
    -0.00282673343
    0.00149484715
    -1.60660475e-14
    -0.00120610458
    -5.38187774e-05
    -0.000214913746
    -1.3424962e-14
    0.000243694744
    -8.54129357e-16
    8.96212287e-05
    1.53391011e-15
    -0.000151415264
    -0.00104383213
    -0.00794052947
    -0.038934911
    -0.132505367
    -0.327955651
    -0.155532563
    -0.471284848
    -0.00169472049
    0.000907364092
    -1.40263757e-15
    -0.00496779754
    0.000807302039
    -0.000425035845
    -4.16143054e-15
    0.000630824051
    -0.000429797298
    0.000212155693
    -3.35451104e-15
    -0.00326295089
    -0.00023978947
    0.000155055685
    -8.95404765e-15
    -0.00740669603
    -0.00140804489
    0.000656003488
    8.51088599e-15
    -9.77005749e-05
    3.08901353e-16
    3.77223091e-05
    -2.02851485e-16
    6.75015297e-05
    8.1284477e-10
    -2.18556586e-09
    5.12054473e-08
    -7.13571749e-08
    1.69214769e-06
    6.37903821e-06
    -3.37595386e-06
    -2.74203629e-06
    -5.55173493e-07
    1.02820173e-15
    -1.58189234e-05
    1.4478933e-05
    -2.8395004e-06
    4.07872906e-15
    -9.98939079e-05
    -0.000216621288
    -0.000185885487
    5.62734084e-15
    0.00184440807
    -0.00126449239
    -0.000388441637
    -1.43042909e-14
    0.000567653271
    -0.000103864226
    0.000258168226
    -7.59674934e-15
    -2.86720532e-06
    -7.37593872e-16
    7.13855462e-07
    1.39232239e-15
    -5.51457367e-06
    -2.54274154e-08
    -1.98495648e-07
    -9.36846681e-07
    -3.32731938e-06
    -6.99670892e-06
    4.48922216e-07
    -1.42720748e-05
    -1.98464426e-06
    1.21340479e-07
    6.7991559e-16
    -1.29491993e-05
    7.20200801e-06
    6.97915432e-07
    3.26306349e-15
    9.55356237e-05
    -6.38403949e-05
    -2.32862344e-05
    1.26220651e-15
    0.000435716501
    -1.46208602e-05
    -7.51719031e-05
    9.16344199e-15
    0.00232691715
    -0.00036991634
    -6.45019689e-05
    3.21956654e-15
    1.56046098e-06
    -3.07341143e-16
    -9.75348657e-07
    -3.70931867e-17
    5.06700867e-07
    1.26917878e-09
    -2.22302485e-08
    1.17738403e-07
    -4.91987013e-07
    6.2212909e-06
    2.53019037e-05
    -1.72153287e-05
    -1.58072725e-05
    3.18940974e-06
    -9.17414748e-16
    -3.75077384e-05
    5.19811682e-05
    -4.59691749e-06
    -1.41359247e-15
    -6.21356506e-06
    2.98442236e-05
    4.68676739e-06
    -3.06462748e-15
    -4.99606446e-05
    9.44243629e-05
    -0.000170139967
    7.32015995e-15
    0.001577492
    -0.00227143917
    4.42964392e-05
    2.0855857e-14
    1.86398906e-06
    -2.28817692e-17
    3.45671026e-06
    1.25372657e-15
    -3.45969537e-05
    1.1104457e-09
    -3.43719693e-08
    1.3636032e-07
    -7.36182684e-07
    8.13797249e-06
    3.3354119e-05
    -2.30813984e-05
    -5.27964031e-06
    1.73170453e-05
    -1.31624406e-15
    -4.94332828e-05
    1.12241491e-05
    -5.65560987e-05
    3.72551525e-16
    5.32047281e-05
    1.09145304e-05
    6.05747343e-05
    -8.6375054e-15
    -0.000187662152
    0.000142174235
    5.5876185e-05
    1.43259449e-14
    0.00174326712
    -0.000351303178
    0.000689646306
    -1.07001814e-14
    9.00357911e-06
    -5.25357333e-16
    4.24302689e-06
    6.47957916e-17
    2.73745626e-05
    7.18720575e-12
    -8.03388014e-10
    2.21007817e-09
    -1.57189278e-08
    1.89004488e-07
    1.15386081e-06
    -5.40902857e-07
    -1.0823859e-06
    4.66107567e-07
    2.16324882e-15
    2.58497391e-08
    8.28813343e-06
    -4.67708012e-06
    4.32707266e-15
    -0.000191293053
    8.67814566e-05
    -7.68015021e-05
    3.14525202e-15
    -0.00247132392
    0.000597916307
    -0.000232080599
    1.80741329e-14
    0.000121252572
    4.78109273e-05
    8.14880145e-05
    1.22966269e-15
    -3.95220985e-06
    3.53437297e-16
    -2.13304978e-06
    2.30001988e-16
    1.00071663e-06
    -9.31383518e-07
    -1.61173893e-05
    -2.53082895e-05
    1.15326656e-05
    3.06854054e-06
    -1.09996584e-06
    1.74751142e-15
Sym=X
Ene=0.908482
Spin=Alpha
Occup=1
    1.42785042e-09
    -1.09670718e-08
    1.05787139e-07
    -2.80012839e-07
    4.13873956e-06
    1.54141986e-05
    -9.27689194e-06
    -4.1782797e-07
    2.80857469e-06
    -9.40505485e-16
    -3.75252978e-05
    -2.35264554e-06
    -1.12698216e-05
    -2.99799763e-15
    0.000221127467
    2.09069531e-05
    0.00016509282
    -4.66838735e-15
    -0.00185785576
    -0.000377403879
    0.00019885756
    -9.12337945e-15
    3.98407877e-05
    -9.31357601e-05
    -0.000112429019
    -5.66076121e-14
    -7.634134e-06
    -5.14825245e-16
    -2.07355077e-06
    1.31775278e-17
    8.15633648e-06
    -9.30587469e-07
    -6.51157488e-06
    -2.13849165e-06
    -0.000140143071
    9.94491128e-07
    -1.3472527e-06
    -1.07753157e-15
    1.37419626e-06
    1.19717439e-05
    0.000140998775
    0.000321115838
    -8.41351462e-07
    4.51034736e-06
    -2.5178806e-16
    -9.89488211e-06
    1.75445823e-05
    -1.20319887e-05
    -8.44240588e-05
    1.14233157e-05
    -1.51177448e-06
    -4.43452281e-16
    9.24979791e-10
    -1.87643209e-09
    5.68322923e-08
    -6.46201106e-08
    1.91593202e-06
    7.87052677e-06
    -3.87997562e-06
    8.7476553e-07
    -3.34267114e-07
    -1.1217371e-15
    -1.9982914e-05
    -9.58653214e-06
    -2.55062764e-06
    1.64114384e-15
    -1.55508506e-05
    0.000174494733
    -9.84081626e-05
    -6.99655104e-15
    0.00100505465
    0.00102881795
    -0.000128618726
    -2.07849057e-14
    0.000823318998
    0.000175964012
    0.000424579052
    2.30870501e-14
    3.15529296e-07
    2.5597082e-16
    5.83149875e-07
    -3.45946436e-16
    -5.30653192e-06
    4.57007808e-08
    3.45484653e-07
    1.7095445e-06
    5.75888133e-06
    1.47871261e-05
    8.68894637e-06
    1.94035675e-05
    1.78508295e-06
    7.03053965e-07
    8.69368381e-16
    -6.20065651e-06
    -5.7351475e-06
    -1.97884233e-06
    -6.99533372e-16
    5.64622985e-05
    4.49827357e-05
    -7.63109891e-06
    -1.61253779e-15
    0.00036163343
    1.86367581e-05
    -6.40266114e-05
    8.60737294e-15
    0.00215155964
    0.000369752723
    -8.85708317e-06
    -1.40975477e-14
    -1.10759287e-06
    2.73637483e-16
    -8.255942e-07
    -6.80541378e-17
    4.44000418e-07
    1.70680437e-08
    7.36643912e-08
    8.48944134e-07
    1.69727461e-06
    2.88403689e-05
    0.000188246922
    -3.89809331e-05
    -1.22937508e-05
    -1.10851424e-05
    -7.69541517e-16
    -0.000499784939
    -0.000492634348
    -0.000321535188
    -1.93087177e-16
    0.000689777834
    0.000248687374
    0.000155531228
    -3.83028865e-15
    0.000388220166
    0.00329157185
    0.00173545476
    -7.71937322e-15
    -0.000723125106
    0.000329990818
    -0.000723657997
    -7.56167725e-14
    -0.000269438338
    5.9059032e-16
    0.00011595718
    1.7505155e-16
    -0.00012959065
    -0.00104348242
    -0.00793787574
    -0.0389213388
    -0.132457982
    -0.327823124
    -0.155993209
    -0.470930603
    0.00155901163
    0.000998120518
    1.80601076e-16
    -0.0054460253
    -0.000727716717
    -0.000473377317
    -8.41823218e-16
    0.000932199676
    0.000259065158
    0.000162305316
    3.94933272e-15
    -0.00307398294
    0.000197542911
    0.000172178044
    -3.44747827e-15
    -0.00654047886
    0.00124693321
    0.000393196392
    7.16170623e-15
    0.000144979129
    2.58316447e-16
    -0.000234521896
    8.68232672e-17
    5.51593305e-05
    2.04404416e-10
    -2.19030871e-08
    5.81552033e-08
    -4.52782412e-07
    4.45953053e-06
    1.9358548e-05
    -1.38686224e-05
    1.35453383e-05
    -3.66986353e-06
    6.88018445e-17
    -1.85454715e-05
    -3.87263591e-05
    1.38587479e-05
    -1.55871548e-16
    -7.81424413e-05
    2.73653184e-06
    4.20515181e-05
    3.66050665e-16
    0.000149636106
    7.37252556e-05
    -0.000142297937
    9.14203072e-15
    0.0021836345
    0.00274476057
    -0.00015267011
    2.48897248e-14
    2.02129091e-05
    2.86901479e-16
    4.54627854e-06
    1.75238287e-16
    -1.70509281e-05
    1.5147169e-10
    -3.33556446e-09
    1.60297138e-08
    -7.27933792e-08
    8.34196031e-07
    3.28110419e-06
    -2.11980813e-06
    2.84602114e-07
    -3.91517441e-08
    -1.42112592e-16
    -3.99378678e-06
    -2.35842786e-06
    3.27141439e-07
    -3.1497836e-15
    -8.71074016e-05
    -5.27759674e-05
    -9.67688746e-06
    -2.39672052e-15
    -0.000527847554
    -0.000210124974
    -2.66710392e-05
    8.89254925e-15
    0.000207119345
    -0.000296629272
    0.000222977003
    1.88874434e-14
    6.16838362e-07
    -3.7752938e-16
    -7.99209883e-07
    -1.71325842e-16
    2.49919971e-06
    -2.01320517e-09
    -1.20349418e-08
    -8.94238682e-08
    -1.77242332e-07
    -6.31622795e-07
    4.64109737e-06
    -2.73168925e-06
    6.37744385e-06
    9.86104706e-06
    -7.70854915e-16
    -4.56238836e-06
    -1.82281267e-05
    -5.98619885e-05
    -3.87223999e-15
    -0.000146388073
    0.00011419443
    -8.81734996e-06
    3.43051649e-15
    0.00344179152
    -0.00175323476
    0.000193071773
    -3.7677926e-15
    -0.000445445116
    -0.000192659643
    0.000188351007
    8.8330722e-14
    -4.52046474e-05
    3.01257595e-16
    -1.14271915e-06
    4.65347586e-16
    3.05142487e-05
    -6.96527571e-06
    -5.04129418e-05
    5.79586259e-05
    0.00103979775
    1.69871776e-05
    -2.31982352e-06
    -9.66719911e-16
Sym=X
Ene=0.003124
Spin=Alpha
Occup=1
    1.42737678e-09
    -1.09657846e-08
    1.05757304e-07
    -2.79972891e-07
    4.1377008e-06
    1.54098886e-05
    -9.27474103e-06
    -4.17320124e-07
    2.80810465e-06
    -9.40830169e-16
    -3.75143996e-05
    -2.35912408e-06
    -1.12646963e-05
    -2.99874023e-15
    0.000221084888
    2.0907249e-05
    0.00016504897
    -4.66958384e-15
    -0.00185897537
    -0.000377433069
    0.000198424762
    -9.1175167e-15
    3.98621711e-05
    -9.32120431e-05
    -0.000112352817
    -5.66175093e-14
    -7.6377186e-06
    -5.14896503e-16
    -2.0729023e-06
    1.26496088e-17
    8.1540477e-06
    -9.26305997e-07
    -6.52419425e-06
    -2.17039192e-06
    -0.000140085155
    9.96045638e-07
    -1.35194638e-06
    -1.07705194e-15
    1.37480947e-06
    1.19662368e-05
    0.000140967754
    0.000320840213
    -8.42069329e-07
    4.50930557e-06
    -2.51870379e-16
    -9.89177953e-06
    1.7544075e-05
    -1.20647652e-05
    -8.43973094e-05
    1.14283971e-05
    -1.51210882e-06
    -4.4314542e-16
    9.18851401e-10
    -1.93316924e-09
    5.65819756e-08
    -6.60232373e-08
    1.90808285e-06
    7.79315839e-06
    -3.87786694e-06
    8.60115364e-07
    -3.26893794e-07
    -1.12069159e-15
    -1.97348367e-05
    -9.84323209e-06
    -2.41312666e-06
    1.64394314e-15
    -1.59966814e-05
    0.000174743724
    -9.85798489e-05
    -6.99378518e-15
    0.00100385088
    0.00103030362
    -0.000129404445
    -2.07764578e-14
    0.000823952842
    0.000175992275
    0.000424691954
    2.30941033e-14
    1.8743573e-07
    2.56419739e-16
    5.3604209e-07
    -3.46752655e-16
    -5.22694257e-06
    5.94371332e-07
    4.5192733e-06
    2.21749417e-05
    7.54078131e-05
    0.000187170791
    9.04416865e-05
    0.000267125506
    2.67588037e-06
    2.26115137e-07
    8.70105522e-16
    -3.58942704e-06
    -6.15948965e-06
    -1.75543e-06
    -6.97345891e-16
    5.61307094e-05
    4.52086439e-05
    -7.74261339e-06
    -1.61077431e-15
    0.000363348485
    1.87627961e-05
    -6.4108104e-05
    8.61207819e-15
    0.00215545251
    0.00037049278
    -9.20189764e-06
    -1.41020192e-14
    -1.05623825e-06
    2.73475074e-16
    -8.45422094e-07
    -6.79475027e-17
    4.08519453e-07
    1.70676139e-08
    7.36655291e-08
    8.48917093e-07
    1.69731187e-06
    2.88394752e-05
    0.000188243542
    -3.89791528e-05
    -1.22923077e-05
    -1.10848489e-05
    -7.70081858e-16
    -0.00049977655
    -0.000492641886
    -0.000321533648
    -1.95231055e-16
    0.000689830239
    0.0002488012
    0.000155628912
    -3.83324599e-15
    0.000387250631
    0.00329223602
    0.00173565868
    -7.7118533e-15
    -0.000723423375
    0.000330045364
    -0.000723793591
    -7.56127682e-14
    -0.000269436791
    5.90977934e-16
    0.000115956788
    1.74319676e-16
    -0.000129587732
    -0.00104348225
    -0.00793787446
    -0.0389213325
    -0.13245796
    -0.327823072
    -0.155993187
    -0.470930526
    0.00155901244
    0.000998120307
    1.80243664e-16
    -0.00544601769
    -0.000727720395
    -0.000473377614
    -8.4353826e-16
    0.000932149321
    0.000259098676
    0.000162317531
    3.94866868e-15
    -0.00307421151
    0.000197550567
    0.000172217531
    -3.45229435e-15
    -0.00654170099
    0.00124712747
    0.000393230238
    7.16001287e-15
    0.000144978288
    2.58477957e-16
    -0.000234521348
    8.68427517e-17
    5.5159056e-05
    2.03737266e-10
    -2.18913989e-08
    5.80933077e-08
    -4.52523741e-07
    4.45625977e-06
    1.93452456e-05
    -1.38595714e-05
    1.35536451e-05
    -3.67153944e-06
    6.9284056e-17
    -1.85257535e-05
    -3.87536763e-05
    1.38611622e-05
    -1.55128497e-16
    -7.81391637e-05
    2.72084438e-06
    4.20490483e-05
    3.67661474e-16
    0.000149662345
    7.36756123e-05
    -0.000142208485
    9.13818166e-15
    0.002182805
    0.0027459541
    -0.000152693371
    2.48787586e-14
    2.02119264e-05
    2.86913464e-16
    4.54446091e-06
    1.74579263e-16
    -1.70327403e-05
    1.50887983e-10
    -3.317497e-09
    1.59580362e-08
    -7.2406408e-08
    8.29918337e-07
    3.26357175e-06
    -2.10767552e-06
    2.87377214e-07
    -4.82541147e-08
    -1.41420712e-16
    -3.96780252e-06
    -2.36432727e-06
    3.56869031e-07
    -3.14997895e-15
    -8.71353548e-05
    -5.27816966e-05
    -9.70872599e-06
    -2.39218003e-15
    -0.000527748834
    -0.000210199674
    -2.67004055e-05
    8.88501777e-15
    0.000206202999
    -0.000296444572
    0.000222614471
    1.8893065e-14
    6.1210571e-07
    -3.7725318e-16
    -8.01440032e-07
    -1.71359876e-16
    2.48481042e-06
    -2.01320865e-09
    -1.20345177e-08
    -8.94250167e-08
    -1.77234043e-07
    -6.31722048e-07
    4.64049018e-06
    -2.73140453e-06
    6.37801184e-06
    9.8608006e-06
    -7.71991871e-16
    -4.56240127e-06
    -1.82324805e-05
    -5.98595212e-05
    -3.87451386e-15
    -0.000146287502
    0.000114148798
    -8.7769794e-06
    3.42886274e-15
    0.00344309002
    -0.00175354879
    0.000193193733
    -3.77729236e-15
    -0.000445508784
    -0.000192684745
    0.000188308146
    8.83300625e-14
    -4.52025633e-05
    3.01071773e-16
    -1.14159778e-06
    4.65226621e-16
    3.05137181e-05
    -6.96478511e-06
    -5.04044625e-05
    5.79719201e-05
    0.00103979154
    1.69855622e-05
    -2.319245e-06
    -9.67638314e-16
Sym=X
Ene=0.072891
Spin=Alpha
Occup=1
    1.42791037e-09
    -1.09672345e-08
    1.05790914e-07
    -2.80017891e-07
    4.138871e-06
    1.54147441e-05
    -9.2771641e-06
    -4.17892262e-07
    2.80863415e-06
    -9.40464357e-16
    -3.7526677e-05
    -2.35182521e-06
    -1.12704704e-05
    -2.99790355e-15
    0.000221132854
    2.09069152e-05
    0.000165098368
    -4.66823577e-15
    -0.00185771396
    -0.000377400176
    0.000198912355
    -9.12412158e-15
    3.98380795e-05
    -9.31260998e-05
    -0.000112438665
    -5.66063579e-14
    -7.63367999e-06
    -5.14816213e-16
    -2.07363283e-06
    1.32443698e-17
    8.15662611e-06
    -9.31129548e-07
    -6.50997696e-06
    -2.13445257e-06
    -0.000140150402
    9.94294285e-07
    -1.34665838e-06
    -1.07759227e-15
    1.37411859e-06
    1.19724409e-05
    0.0001410027
    0.000321150729
    -8.41260553e-07
    4.51047918e-06
    -2.51777633e-16
    -9.89527475e-06
    1.75446462e-05
    -1.20278385e-05
    -8.44274441e-05
    1.14226721e-05
    -1.51173211e-06
    -4.43491125e-16
    9.25755717e-10
    -1.8692483e-09
    5.68639849e-08
    -6.44424529e-08
    1.9169258e-06
    7.88032259e-06
    -3.88024253e-06
    8.76620439e-07
    -3.35200678e-07
    -1.12186945e-15
    -2.00143238e-05
    -9.55402997e-06
    -2.56803723e-06
    1.64078938e-15
    -1.54944016e-05
    0.000174463203
    -9.83864227e-05
    -6.9969011e-15
    0.00100520704
    0.00102862983
    -0.00012851924
    -2.0785975e-14
    0.000823238727
    0.00017596043
    0.000424564748
    2.30861566e-14
    3.31747814e-07
    2.55913975e-16
    5.891144e-07
    -3.4584435e-16
    -5.31660899e-06
    -2.37689584e-08
    -1.82978208e-07
    -8.81674951e-07
    -3.05969499e-06
    -7.03917426e-06
    -1.66214965e-06
    -1.19616632e-05
    1.6722949e-06
    7.63441402e-07
    8.69275031e-16
    -6.53127633e-06
    -5.68141944e-06
    -2.00712957e-06
    -6.99810325e-16
    5.65042814e-05
    4.49541316e-05
    -7.61697939e-06
    -1.61276104e-15
    0.000361416272
    1.86207994e-05
    -6.40162919e-05
    8.60677701e-15
    0.0021510667
    0.000369659013
    -8.81342442e-06
    -1.40969812e-14
    -1.11409509e-06
    2.73658041e-16
    -8.23083682e-07
    -6.8067638e-17
    4.4849282e-07
    1.70680977e-08
    7.36642456e-08
    8.48947541e-07
    1.69726986e-06
    2.88404815e-05
    0.000188247347
    -3.89811577e-05
    -1.22939333e-05
    -1.10851793e-05
    -7.69473087e-16
    -0.000499785992
    -0.000492633384
    -0.000321535376
    -1.92815727e-16
    0.000689771185
    0.000248672957
    0.000155518856
    -3.82991413e-15
    0.000388342916
    0.00329148769
    0.0017354289
    -7.7203252e-15
    -0.000723087327
    0.000329983906
    -0.000723640814
    -7.5617278e-14
    -0.000269438529
    5.9054123e-16
    0.000115957228
    1.75144212e-16
    -0.000129591017
    -0.00104348242
    -0.00793787575
    -0.0389213388
    -0.132457982
    -0.327823124
    -0.155993209
    -0.470930604
    0.00155901149
    0.000998120526
    1.80646326e-16
    -0.00544602616
    -0.000727716237
    -0.00047337727
    -8.41606052e-16
    0.000932206033
    0.000259060909
    0.000162303766
    3.94941672e-15
    -0.00307395394
    0.000197541938
    0.000172173041
    -3.44686842e-15
    -0.00654032399
    0.00124690859
    0.000393192098
    7.16192049e-15
    0.000144979233
    2.58295993e-16
    -0.000234521961
    8.68207985e-17
    5.51593642e-05
    2.04488883e-10
    -2.19045665e-08
    5.8163039e-08
    -4.52815154e-07
    4.45994457e-06
    1.93602319e-05
    -1.38697681e-05
    1.35442863e-05
    -3.66965127e-06
    6.87407881e-17
    -1.85479677e-05
    -3.87228996e-05
    1.3858442e-05
    -1.55965626e-16
    -7.81428547e-05
    2.73851805e-06
    4.205183e-05
    3.65846706e-16
    0.000149632781
    7.37315398e-05
    -0.00014230926
    9.14251789e-15
    0.00218373949
    0.0027446094
    -0.000152667162
    2.48911128e-14
    2.02130332e-05
    2.86899956e-16
    4.54650859e-06
    1.75321725e-16
    -1.70532306e-05
    1.51545593e-10
    -3.33785201e-09
    1.60387889e-08
    -7.2842374e-08
    8.34737634e-07
    3.28332399e-06
    -2.12134426e-06
    2.84250739e-07
    -3.79992497e-08
    -1.42200192e-16
    -3.99707669e-06
    -2.35768086e-06
    3.23377484e-07
    -3.1497588e-15
    -8.71038606e-05
    -5.2775241e-05
    -9.67285604e-06
    -2.39729537e-15
    -0.000527860043
    -0.000210115512
    -2.66673205e-05
    8.89350267e-15
    0.000207235364
    -0.000296652652
    0.000223022901
    1.88867313e-14
    6.17437573e-07
    -3.77564344e-16
    -7.98927498e-07
    -1.7132153e-16
    2.50102155e-06
    -2.01320469e-09
    -1.20349952e-08
    -8.94237211e-08