[Molden Format]
[Atoms] (Angs)
  C      1    6     -0.13173890     -1.79208980     -0.00000000
  H      2    1     -2.14962000     -1.30978739     -0.00000000
  H      3    1     -0.31599560     -2.86503115     -0.00000000
  H      4    1      0.14407746      2.04280963     -0.00000000
  C      5    6     -1.17258876      0.48030861     -0.00000000
  O      6    8     -2.25008207      1.06833796     -0.00000000
  C      7    6      1.31158357      0.28308717      0.00000000
  O      8    8      2.36361668      0.96389345      0.00000000
  N      9    7      0.07017030      1.03138997     -0.00000000
  N     10    7     -1.19586868     -0.94982644     -0.00000000
  C     11    6      1.19165158     -1.13169473      0.00000000
  H     12    1      2.09970506     -1.73445456      0.00000000
[GTO]
1    0
S    1    1.000000
   4.56324000E+03    1.96665000E-03 
S    1    1.000000
   6.82024000E+02    1.52306000E-02 
S    1    1.000000
   1.54973000E+02    7.61269000E-02 
S    1    1.000000
   4.44553000E+01    2.60801000E-01 
S    1    1.000000
   1.30290000E+01    6.16462000E-01 
S    1    1.000000
   1.82773000E+00    2.21006000E-01 
SP   3    1.000000
   2.09642000E+01    1.14660000E-01   4.02487000E-02 
   4.80331000E+00    9.19999000E-01   2.37594000E-01 
   1.45933000E+00   -3.03068000E-03   8.15854000E-01 
SP   1    1.000000
   4.83456000E-01    1.00000000E+00   1.00000000E+00 
SP   1    1.000000
   1.45585000E-01    1.00000000E+00   1.00000000E+00 
SP   1    1.000000
   4.38000000E-02    1.00000000E+00   1.00000000E+00 
SP   1    1.000000
   1.31927711E-02    1.00000000E+00   1.00000000E+00 
D    1    1.000000
   6.26000000E-01    1.00000000E+00 

2    0
S    3    1.000000
   3.38650000E+01    2.54938000E-02 
   5.09479000E+00    1.90373000E-01 
   1.15879000E+00    8.52161000E-01 
S    1    1.000000
   3.25840000E-01    1.00000000E+00 
S    1    1.000000
   1.02741000E-01    1.00000000E+00 
S    1    1.000000
   3.60000000E-02    1.00000000E+00 
P    1    1.000000
   7.50000000E-01    1.00000000E+00 

3    0
S    3    1.000000
   3.38650000E+01    2.54938000E-02 
   5.09479000E+00    1.90373000E-01 
   1.15879000E+00    8.52161000E-01 
S    1    1.000000
   3.25840000E-01    1.00000000E+00 
S    1    1.000000
   1.02741000E-01    1.00000000E+00 
S    1    1.000000
   3.60000000E-02    1.00000000E+00 
P    1    1.000000
   7.50000000E-01    1.00000000E+00 

4    0
S    3    1.000000
   3.38650000E+01    2.54938000E-02 
   5.09479000E+00    1.90373000E-01 
   1.15879000E+00    8.52161000E-01 
S    1    1.000000
   3.25840000E-01    1.00000000E+00 
S    1    1.000000
   1.02741000E-01    1.00000000E+00 
S    1    1.000000
   3.60000000E-02    1.00000000E+00 
P    1    1.000000
   7.50000000E-01    1.00000000E+00 

5    0
S    1    1.000000
   4.56324000E+03    1.96665000E-03 
S    1    1.000000
   6.82024000E+02    1.52306000E-02 
S    1    1.000000
   1.54973000E+02    7.61269000E-02 
S    1    1.000000
   4.44553000E+01    2.60801000E-01 
S    1    1.000000
   1.30290000E+01    6.16462000E-01 
S    1    1.000000
   1.82773000E+00    2.21006000E-01 
SP   3    1.000000
   2.09642000E+01    1.14660000E-01   4.02487000E-02 
   4.80331000E+00    9.19999000E-01   2.37594000E-01 
   1.45933000E+00   -3.03068000E-03   8.15854000E-01 
SP   1    1.000000
   4.83456000E-01    1.00000000E+00   1.00000000E+00 
SP   1    1.000000
   1.45585000E-01    1.00000000E+00   1.00000000E+00 
SP   1    1.000000
   4.38000000E-02    1.00000000E+00   1.00000000E+00 
SP   1    1.000000
   1.31927711E-02    1.00000000E+00   1.00000000E+00 
D    1    1.000000
   6.26000000E-01    1.00000000E+00 

6    0
S    1    1.000000
   8.58850000E+03    1.89515000E-03 
S    1    1.000000
   1.29723000E+03    1.43859000E-02 
S    1    1.000000
   2.99296000E+02    7.07320000E-02 
S    1    1.000000
   8.73771000E+01    2.40001000E-01 
S    1    1.000000
   2.56789000E+01    5.94797000E-01 
S    1    1.000000
   3.74004000E+00    2.80802000E-01 
SP   3    1.000000
   4.21175000E+01    1.13889000E-01   3.65114000E-02 
   9.62837000E+00    9.20811000E-01   2.37153000E-01 
   2.85332000E+00   -3.27447000E-03   8.19702000E-01 
SP   1    1.000000
   9.05661000E-01    1.00000000E+00   1.00000000E+00 
SP   1    1.000000
   2.55611000E-01    1.00000000E+00   1.00000000E+00 
SP   1    1.000000
   8.45000000E-02    1.00000000E+00   1.00000000E+00 
SP   1    1.000000
   2.54518072E-02    1.00000000E+00   1.00000000E+00 
D    1    1.000000
   1.29200000E+00    1.00000000E+00 

7    0
S    1    1.000000
   4.56324000E+03    1.96665000E-03 
S    1    1.000000
   6.82024000E+02    1.52306000E-02 
S    1    1.000000
   1.54973000E+02    7.61269000E-02 
S    1    1.000000
   4.44553000E+01    2.60801000E-01 
S    1    1.000000
   1.30290000E+01    6.16462000E-01 
S    1    1.000000
   1.82773000E+00    2.21006000E-01 
SP   3    1.000000
   2.09642000E+01    1.14660000E-01   4.02487000E-02 
   4.80331000E+00    9.19999000E-01   2.37594000E-01 
   1.45933000E+00   -3.03068000E-03   8.15854000E-01 
SP   1    1.000000
   4.83456000E-01    1.00000000E+00   1.00000000E+00 
SP   1    1.000000
   1.45585000E-01    1.00000000E+00   1.00000000E+00 
SP   1    1.000000
   4.38000000E-02    1.00000000E+00   1.00000000E+00 
SP   1    1.000000
   1.31927711E-02    1.00000000E+00   1.00000000E+00 
D    1    1.000000
   6.26000000E-01    1.00000000E+00 

8    0
S    1    1.000000
   8.58850000E+03    1.89515000E-03 
S    1    1.000000
   1.29723000E+03    1.43859000E-02 
S    1    1.000000
   2.99296000E+02    7.07320000E-02 
S    1    1.000000
   8.73771000E+01    2.40001000E-01 
S    1    1.000000
   2.56789000E+01    5.94797000E-01 
S    1    1.000000
   3.74004000E+00    2.80802000E-01 
SP   3    1.000000
   4.21175000E+01    1.13889000E-01   3.65114000E-02 
   9.62837000E+00    9.20811000E-01   2.37153000E-01 
   2.85332000E+00   -3.27447000E-03   8.19702000E-01 
SP   1    1.000000
   9.05661000E-01    1.00000000E+00   1.00000000E+00 
SP   1    1.000000
   2.55611000E-01    1.00000000E+00   1.00000000E+00 
SP   1    1.000000
   8.45000000E-02    1.00000000E+00   1.00000000E+00 
SP   1    1.000000
   2.54518072E-02    1.00000000E+00   1.00000000E+00 
D    1    1.000000
   1.29200000E+00    1.00000000E+00 

9    0
S    1    1.000000
   6.29348000E+03    1.96979000E-03 
S    1    1.000000
   9.49044000E+02    1.49613000E-02 
S    1    1.000000
   2.18776000E+02    7.35006000E-02 
S    1    1.000000
   6.36916000E+01    2.48937000E-01 
S    1    1.000000
   1.88282000E+01    6.02460000E-01 
S    1    1.000000
   2.72023000E+00    2.56202000E-01 
SP   3    1.000000
   3.06331000E+01    1.11906000E-01   3.83119000E-02 
   7.02614000E+00    9.21666000E-01   2.37403000E-01 
   2.11205000E+00   -2.56919000E-03   8.17592000E-01 
SP   1    1.000000
   6.84009000E-01    1.00000000E+00   1.00000000E+00 
SP   1    1.000000
   2.00878000E-01    1.00000000E+00   1.00000000E+00 
SP   1    1.000000
   6.39000000E-02    1.00000000E+00   1.00000000E+00 
SP   1    1.000000
   1.92469880E-02    1.00000000E+00   1.00000000E+00 
D    1    1.000000
   9.13000000E-01    1.00000000E+00 

10    0
S    1    1.000000
   6.29348000E+03    1.96979000E-03 
S    1    1.000000
   9.49044000E+02    1.49613000E-02 
S    1    1.000000
   2.18776000E+02    7.35006000E-02 
S    1    1.000000
   6.36916000E+01    2.48937000E-01 
S    1    1.000000
   1.88282000E+01    6.02460000E-01 
S    1    1.000000
   2.72023000E+00    2.56202000E-01 
SP   3    1.000000
   3.06331000E+01    1.11906000E-01   3.83119000E-02 
   7.02614000E+00    9.21666000E-01   2.37403000E-01 
   2.11205000E+00   -2.56919000E-03   8.17592000E-01 
SP   1    1.000000
   6.84009000E-01    1.00000000E+00   1.00000000E+00 
SP   1    1.000000
   2.00878000E-01    1.00000000E+00   1.00000000E+00 
SP   1    1.000000
   6.39000000E-02    1.00000000E+00   1.00000000E+00 
SP   1    1.000000
   1.92469880E-02    1.00000000E+00   1.00000000E+00 
D    1    1.000000
   9.13000000E-01    1.00000000E+00 

11    0
S    1    1.000000
   4.56324000E+03    1.96665000E-03 
S    1    1.000000
   6.82024000E+02    1.52306000E-02 
S    1    1.000000
   1.54973000E+02    7.61269000E-02 
S    1    1.000000
   4.44553000E+01    2.60801000E-01 
S    1    1.000000
   1.30290000E+01    6.16462000E-01 
S    1    1.000000
   1.82773000E+00    2.21006000E-01 
SP   3    1.000000
   2.09642000E+01    1.14660000E-01   4.02487000E-02 
   4.80331000E+00    9.19999000E-01   2.37594000E-01 
   1.45933000E+00   -3.03068000E-03   8.15854000E-01 
SP   1    1.000000
   4.83456000E-01    1.00000000E+00   1.00000000E+00 
SP   1    1.000000
   1.45585000E-01    1.00000000E+00   1.00000000E+00 
SP   1    1.000000
   4.38000000E-02    1.00000000E+00   1.00000000E+00 
SP   1    1.000000
   1.31927711E-02    1.00000000E+00   1.00000000E+00 
D    1    1.000000
   6.26000000E-01    1.00000000E+00 

12    0
S    3    1.000000
   3.38650000E+01    2.54938000E-02 
   5.09479000E+00    1.90373000E-01 
   1.15879000E+00    8.52161000E-01 
S    1    1.000000
   3.25840000E-01    1.00000000E+00 
S    1    1.000000
   1.02741000E-01    1.00000000E+00 
S    1    1.000000
   3.60000000E-02    1.00000000E+00 
P    1    1.000000
   7.50000000E-01    1.00000000E+00 

[MO]
Sym=X
Ene=0.95293
Spin=Alpha
Occup=1
1    9.00717188e-10
2    -2.44602384e-09
3    5.67327501e-08
4    -7.59252125e-08
5    1.97512102e-06
6    8.19577232e-06
7    -4.08962503e-06
8    -9.66054771e-07
9    8.93501884e-07
10    6.17949036e-16
11    -2.07237867e-05
12    1.23258791e-05
13    -9.74781069e-06
14    1.41354941e-15
15    8.09481201e-05
16    -5.68510505e-07
17    8.33791742e-05
18    2.2775182e-15
19    0.00213051946
20    5.56315483e-05
21    0.000823335762
22    -1.11513374e-14
23    -4.06917556e-05
24    0.000145150897
25    -0.000144941892
26    1.88439631e-14
27    6.82160426e-06
28    1.3570151e-16
29    -1.23314344e-06
30    1.00434932e-15
31    4.35221104e-06
32    -8.14514949e-06
33    2.40097373e-05
34    6.06900149e-05
35    -0.000110148115
36    -2.95767681e-06
37    8.92997101e-06
38    -9.12191088e-16
39    -1.16696891e-06
40    1.04739829e-05
41    5.89803926e-05
42    0.000524285384
43    1.36594465e-06
44    1.98080301e-06
45    1.5667496e-16
46    -5.89999031e-06
47    9.60608937e-07
48    6.23594877e-05
49    -5.08680973e-05
50    -9.67027723e-06
51    6.36477261e-07
52    -5.83679038e-16
53    1.16588666e-08
54    1.07941515e-07
55    4.76206501e-07
56    2.66943077e-06
57    1.49323592e-05
58    0.000147189369
59    -4.01068581e-06
60    2.78713477e-05
61    -1.40274714e-05
62    -1.98876351e-15
63    -0.000471955566
64    0.000488367806
65    -0.000261591535
66    -5.32602689e-15
67    0.000848185988
68    -0.000473746242
69    0.000326654703
70    -5.26014904e-15
71    0.00228988138
72    -0.00282671279
73    0.00149484457
74    -1.60664646e-14
75    -0.00120608806
76    -5.38152458e-05
77    -0.000214905225
78    -1.34244986e-14
79    0.00024369475
80    -8.54124219e-16
81    8.96212404e-05
82    1.53390317e-15
83    -0.000151415371
84    -0.00104383213
85    -0.00794052947
86    -0.038934911
87    -0.132505367
88    -0.327955651
89    -0.155532563
90    -0.471284848
91    -0.00169472046
92    0.000907364106
93    -1.40262013e-15
94    -0.00496779767
95    0.000807301924
96    -0.000425035885
97    -4.16144458e-15
98    0.000630825185
99    -0.000429796395
100    0.00021215554
101    -3.3545434e-15
102    -0.00326294363
103    -0.000239789096
104    0.0001550544
105    -8.9538749e-15
106    -0.00740665285
107    -0.00140803747
108    0.00065600331
109    8.51060305e-15
110    -9.77005971e-05
111    3.08906845e-16
112    3.77222926e-05
113    -2.02852851e-16
114    6.75015387e-05
115    8.13187327e-10
116    -2.18408741e-09
117    5.12224857e-08
118    -7.13231105e-08
119    1.69272652e-06
120    6.38281634e-06
121    -3.37673621e-06
122    -2.74228303e-06
123    -5.55395973e-07
124    1.02818628e-15
125    -1.58289542e-05
126    1.44690458e-05
127    -2.84595364e-06
128    4.07872519e-15
129    -9.9880064e-05
130    -0.000216616296
131    -0.000185882366
132    5.62726397e-15
133    0.00184441586
134    -0.00126442633
135    -0.000388406806
136    -1.43044459e-14
137    0.000567638757
138    -0.000103857603
139    0.000258153702
140    -7.59826698e-15
141    -2.87261298e-06
142    -7.37582019e-16
143    7.16182735e-07
144    1.39232591e-15
145    -5.51717457e-06
146    -4.63702177e-08
147    -3.57809651e-07
148    -1.71800205e-06
149    -5.98576504e-06
150    -1.35761536e-05
151    -2.68187794e-06
152    -2.37237016e-05
153    -1.95335473e-06
154    1.41372863e-07
155    6.79919215e-16
156    -1.30585016e-05
157    7.18740266e-06
158    6.884147e-07
159    3.26304659e-15
160    9.55543331e-05
161    -6.38351954e-05
162    -2.32829769e-05
163    1.26228577e-15
164    0.000435654806
165    -1.46168955e-05
166    -7.51684475e-05
167    9.1633728e-15
168    0.00232678588
169    -0.000369891314
170    -6.44940774e-05
171    3.21971028e-15
172    1.56337073e-06
173    -3.07335959e-16
174    -9.80055537e-07
175    -3.70914441e-17
176    5.0780792e-07
177    1.26918289e-09
178    -2.22306881e-08
179    1.1773957e-07
180    -4.919961e-07
181    6.2213804e-06
182    2.53022923e-05
183    -1.7215607e-05
184    -1.58070007e-05
185    3.18933608e-06
186    -9.17413368e-16
187    -3.75081106e-05
188    5.1980391e-05
189    -4.59663935e-06
190    -1.4135956e-15
191    -6.21513339e-06
192    2.98442786e-05
193    4.68761137e-06
194    -3.06462013e-15
195    -4.99576414e-05
196    9.44258426e-05
197    -0.000170142823
198    7.32034343e-15
199    0.00157753582
200    -0.00227138409
201    4.42933751e-05
202    2.08563566e-14
203    1.86439474e-06
204    -2.2876011e-17
205    3.45680151e-06
206    1.25373009e-15
207    -3.4597296e-05
208    1.11044874e-09
209    -3.43720363e-08
210    1.36360642e-07
211    -7.36184145e-07
212    8.13798923e-06
213    3.33541849e-05
214    -2.3081441e-05
215    -5.2796346e-06
216    1.73170445e-05
217    -1.31624692e-15
218    -4.9433363e-05
219    1.12241018e-05
220    -5.65560922e-05
221    3.72488309e-16
222    5.32029798e-05
223    1.09134712e-05
224    6.05745401e-05
225    -8.6375535e-15
226    -0.000187672746
227    0.000142170018
228    5.58756497e-05
229    1.43261234e-14
230    0.00174327128
231    -0.000351309131
232    0.000689650782
233    -1.06998024e-14
234    9.00359149e-06
235    -5.25364911e-16
236    4.24301085e-06
237    6.4792353e-17
238    2.73746128e-05
239    7.14680051e-12
240    -8.03629557e-10
241    2.20828343e-09
242    -1.57224851e-08
243    1.88991812e-07
244    1.15395396e-06
245    -5.40957683e-07
246    -1.0822579e-06
247    4.6630548e-07
248    2.16323335e-15
249    2.57581715e-08
250    8.28776759e-06
251    -4.67828156e-06
252    4.32699494e-15
253    -0.000191295991
254    8.67837485e-05
255    -7.68016791e-05
256    3.14532087e-15
257    -0.00247125484
258    0.00059788112
259    -0.000232076724
260    1.80740573e-14
261    0.000121243632
262    4.78070606e-05
263    8.14917947e-05
264    1.2314355e-15
265    -3.95311711e-06
266    3.53443343e-16
267    -2.13307272e-06
268    2.30011327e-16
269    1.00132906e-06
270    -9.31523312e-07
271    -1.61184011e-05
272    -2.53071263e-05
273    1.15535344e-05
274    3.06888148e-06
275    -1.1000124e-06
276    1.74749202e-15
Sym=X
Ene=0.981653
Spin=Alpha
Occup=1
1    1.4278612e-09
2    -1.0967101e-08
3    1.05787817e-07
4    -2.80013747e-07
5    4.13876318e-06
6    1.54142967e-05
7    -9.27694087e-06
8    -4.17839526e-07
9    2.80858538e-06
10    -9.40498093e-16
11    -3.75255458e-05
12    -2.35249809e-06
13    -1.12699383e-05
14    -2.99798072e-15
15    0.000221128435
16    2.09069463e-05
17    0.000165093817
18    -4.66836011e-15
19    -0.00185783027
20    -0.000377403213
21    0.000198867409
22    -9.12351284e-15
23    3.98403009e-05
24    -9.31340238e-05
25    -0.000112430753
26    -5.66073867e-14
27    -7.6340524e-06
28    -5.14823622e-16
29    -2.07356552e-06
30    1.31895423e-17
31    8.15638854e-06
32    -9.30684905e-07
33    -6.51128767e-06
34    -2.13776565e-06
35    -0.000140144389
36    9.94455747e-07
37    -1.34714587e-06
38    -1.07754248e-15
39    1.3741823e-06
40    1.19718692e-05
41    0.000140999481
42    0.000321122109
43    -8.41335122e-07
44    4.51037105e-06
45    -2.51786186e-16
46    -9.89495269e-06
47    1.75445938e-05
48    -1.20312428e-05
49    -8.44246673e-05
50    1.14232e-05
51    -1.51176686e-06
52    -4.43459263e-16
53    9.25119259e-10
54    -1.87514085e-09
55    5.68379889e-08
56    -6.45881776e-08
57    1.91611065e-06
58    7.87228752e-06
59    -3.88002359e-06
60    8.7509894e-07
61    -3.34434917e-07
62    -1.12176089e-15
63    -1.99885597e-05
64    -9.58069006e-06
65    -2.55375692e-06
66    1.64108013e-15
67    -1.55407042e-05
68    0.000174489066
69    -9.8404255e-05
70    -6.99661397e-15
71    0.00100508204
72    0.00102878414
73    -0.000128600844
74    -2.07850979e-14
75    0.00082330457
76    0.000175963369
77    0.000424576481
78    2.30868895e-14
79    3.18444484e-07
80    2.55960603e-16
81    5.84221965e-07
82    -3.45928086e-16
83    -5.30834322e-06
84    3.32139837e-08
85    2.5049641e-07
86    1.2437873e-06
87    4.17379157e-06
88    1.08639707e-05
89    6.82839476e-06
90    1.37658427e-05
91    1.76480993e-06
92    7.1390827e-07
93    8.69351602e-16
94    -6.26008357e-06
95    -5.72549018e-06
96    -1.9839268e-06
97    -6.99583153e-16
98    5.64698447e-05
99    4.49775943e-05
100    -7.62856101e-06
101    -1.61257791e-15
102    0.000361594398
103    1.86338896e-05
104    -6.40247565e-05
105    8.60726583e-15
106    0.00215147104
107    0.000369735879
108    -8.84923575e-06
109    -1.40974459e-14
110    -1.1087616e-06
111    2.73641178e-16
112    -8.25142949e-07
113    -6.80565644e-17
114    4.44807902e-07
115    1.70680534e-08
116    7.3664365e-08
117    8.48944747e-07
118    1.69727376e-06
119    2.88403892e-05
120    0.000188246999
121    -3.89809735e-05
122    -1.22937836e-05
123    -1.1085149e-05
124    -7.69529217e-16
125    -0.000499785129
126    -0.000492634175
127    -0.000321535222
128    -1.93038386e-16
129    0.000689776639
130    0.000248684782
131    0.000155529004
132    -3.83022133e-15
133    0.00038824223
134    0.00329155672
135    0.00173545011
136    -7.71954434e-15
137    -0.000723118316
138    0.000329989576
139    -0.000723654908
140    -7.56168634e-14
141    -0.000269438373
142    5.90581496e-16
143    0.000115957189
144    1.75068205e-16
145    -0.000129590716
146    -0.00104348242
147    -0.00793787575
148    -0.0389213388
149    -0.132457982
150    -0.327823124
151    -0.155993209
152    -0.470930604
153    0.0015590116
154    0.00099812052
155    1.80609209e-16
156    -0.00544602546
157    -0.000727716631
158    -0.000473377309
159    -8.41784184e-16
160    0.000932200819
161    0.000259064394
162    0.000162305037
163    3.94934782e-15
164    -0.00307397773
165    0.000197542736
166    0.000172177145
167    -3.44736866e-15
168    -0.00654045102
169    0.00124692879
170    0.00039319562
171    7.16174475e-15
172    0.000144979148
173    2.58312771e-16
174    -0.000234521908
175    8.68228235e-17
176    5.51593366e-05
177    2.04419598e-10
178    -2.1903353e-08
179    5.81566118e-08
180    -4.52788297e-07
181    4.45960496e-06
182    1.93588507e-05
183    -1.38688283e-05
184    1.35451492e-05
185    -3.66982538e-06
186    6.879087e-17
187    -1.85459202e-05
188    -3.87257373e-05
189    1.3858693e-05
190    -1.55888458e-16
191    -7.81425156e-05
192    2.73688885e-06
193    4.20515742e-05
194    3.66014005e-16
195    0.000149635508
196    7.37263852e-05
197    -0.000142299972
198    9.14211829e-15
199    0.00218365337
200    0.0027447334
201    -0.00015266958
202    2.48899743e-14
203    2.02129314e-05
204    2.86901206e-16
205    4.54631989e-06
206    1.75253284e-16
207    -1.7051342e-05
208    1.51484973e-10
209    -3.33597564e-09
210    1.6031345e-08
211    -7.28021858e-08
212    8.34293382e-07
213    3.28150319e-06
214    -2.12008424e-06
215    2.84538956e-07
216    -3.89445897e-08
217    -1.42128338e-16
218    -3.99437812e-06
219    -2.3582936e-06
220    3.26464889e-07
221    -3.14977914e-15
222    -8.71067652e-05
223    -5.27758369e-05
224    -9.67616284e-06
225    -2.39682385e-15
226    -0.000527849799
227    -0.000210123273
228    -2.66703708e-05
229    8.89272062e-15
230    0.000207140199
231    -0.000296633475
232    0.000222985253
233    1.88873154e-14
234    6.16946067e-07
235    -3.77535665e-16
236    -7.99159127e-07
237    -1.71325067e-16
238    2.49952718e-06
239    -2.01320509e-09
240    -1.20349514e-08
241    -8.94238418e-08
242    -1.7724252e-07
243    -6.31620534e-07
244    4.64111118e-06
245    -2.73169572e-06
246    6.37743091e-06
247    9.86105264e-06
248    -7.70829037e-16
249    -4.56238805e-06
250    -1.82280275e-05
251    -5.98620445e-05
252    -3.87218822e-15
253    -0.000146390361
254    0.000114195469
255    -8.81826869e-06
256    3.43055412e-15
257    0.00344176196
258    -0.00175322761
259    0.000193068996
260    -3.76757639e-15
261    -0.000445443666
262    -0.000192659071
263    0.000188351982
264    8.83307367e-14
265    -4.52046947e-05
266    3.01261823e-16
267    -1.14274467e-06
268    4.65350338e-16
269    3.05142606e-05
270    -6.96528685e-06
271    -5.04131346e-05
272    5.79583231e-05
273    0.00103979789
274    1.69872143e-05
275    -2.31983668e-06
276    -9.66699007e-16
Sym=X
Ene=0.009846
Spin=Alpha
Occup=1
1    1.42353333e-09
2    -1.09552673e-08
3    1.0551504e-07
4    -2.79647113e-07
5    4.1292614e-06
6    1.53748891e-05
7    -9.25725871e-06
8    -4.13210401e-07
9    2.80427631e-06
10    -9.43445408e-16
11    -3.74259164e-05
12    -2.41147347e-06
13    -1.12231485e-05
14    -3.00471302e-15
15    0.000220738429
16    2.09094294e-05
17    0.000164692812
18    -4.67920906e-15
19    -0.00186800759
20    -0.000377665213
21    0.000194923954
22    -9.07002904e-15
23    4.00346324e-05
24    -9.38277787e-05
25    -0.000111735656
26    -5.66969449e-14
27    -7.66661943e-06
28    -5.15467338e-16
29    -2.06763901e-06
30    8.38171774e-18
31    8.13546219e-06
32    -8.91684652e-07
33    -6.62614459e-06
34    -2.42825557e-06
35    -0.000139615529
36    1.00860238e-06
37    -1.38987699e-06
38    -1.07316367e-15
39    1.37975275e-06
40    1.19215953e-05
41    0.000140715544
42    0.000318608772
43    -8.47864113e-07
44    4.50083784e-06
45    -2.52533297e-16
46    -9.86659754e-06
47    1.75397956e-05
48    -1.23296115e-05
49    -8.41802071e-05
50    1.146936e-05
51    -1.51479636e-06
52    -4.40660223e-16
53    8.69299417e-10
54    -2.39181982e-09
55    5.45578099e-08
56    -7.73656187e-08
57    1.84460978e-06
58    7.16762369e-06
59    -3.86078081e-06
60    7.41672877e-07
61    -2.67283639e-07
62    -1.11222819e-15
63    -1.77291492e-05
64    -1.19183266e-05
65    -1.30152716e-06
66    1.66655634e-15
67    -1.96006702e-05
68    0.000176754832
69    -9.99667822e-05
70    -6.97135467e-15
71    0.000994109257
72    0.00104230348
73    -0.000135754982
74    -2.07079532e-14
75    0.000829068556
76    0.000176218969
77    0.000425600363
78    2.31508876e-14
79    -8.48090498e-07
80    2.60046254e-16
81    1.55211455e-07
82    -3.53266716e-16
83    -4.58347935e-06
84    5.02988629e-06
85    3.82606541e-05
86    0.000187619534
87    0.000638457677
88    0.00158073988
89    0.00075134009
90    0.00226973776
91    9.87717035e-06
92    -3.62951998e-06
93    8.76055834e-16
94    1.75201132e-05
95    -9.58986192e-06
96    5.06808157e-08
97    -6.7965495e-16
98    5.34495327e-05
99    4.70344546e-05
100    -8.64403181e-06
101    -1.59650183e-15
102    0.000377209514
103    1.97815128e-05
104    -6.47662498e-05
105    8.65002864e-15
106    0.00218690109
107    0.000376471737
108    -1.19893274e-05
109    -1.41380242e-14
110    -6.4107041e-07
111    2.72159367e-16
112    -1.00570468e-06
113    -6.70847617e-17
114    1.21682778e-07
115    1.70639663e-08
116    7.36739805e-08
117    8.48689878e-07
118    1.69759583e-06
119    2.88319577e-05
120    0.0001882143
121    -3.89643653e-05
122    -1.22805166e-05
123    -1.10823641e-05
124    -7.74442227e-16
125    -0.000499703662
126    -0.000492697822
127    -0.000321517935
128    -2.12560451e-16
129    0.00069024689
130    0.000249718859
131    0.000156417024
132    -3.85711458e-15
133    0.000379408855
134    0.00329757184
135    0.00173728958
136    -7.65098306e-15
137    -0.00072582728
138    0.000330482967
139    -0.000724882406
140    -7.55796299e-14
141    -0.000269421552
142    5.94105464e-16
143    0.000115952439
144    1.68401348e-16
145    -0.00012956283
146    -0.00104347031
147    -0.00793778358
148    -0.038920887
149    -0.132456444
150    -0.327819323
151    -0.155991419
152    -0.470925124
153    0.00155900319
154    0.000998108469
155    1.77352477e-16
156    -0.00544590089
157    -0.000727742743
158    -0.00047337521
159    -8.57394321e-16
160    0.000931732791
161    0.000259367012
162    0.00016241464
163    3.94326043e-15
164    -0.00307602812
165    0.000197610454
166    0.000172535003
167    -3.49119311e-15
168    -0.00655151447
169    0.00124868519
170    0.000393499863
171    7.14625085e-15
172    0.000144970012
173    2.59781e-16
174    -0.000234514544
175    8.69993855e-17
176    5.51562772e-05
177    1.98341875e-10
178    -2.17966883e-08
179    5.75923468e-08
180    -4.50428023e-07
181    4.42977329e-06
182    1.92375117e-05
183    -1.37862617e-05
184    1.36206607e-05
185    -3.68505045e-06
186    7.31816106e-17
187    -1.8366163e-05
188    -3.89741185e-05
189    1.38805385e-05
190    -1.49120005e-16
191    -7.81118742e-05
192    2.59399744e-06
193    4.20286561e-05
194    3.80679725e-16
195    0.000149872943
196    7.32735423e-05
197    -0.000141483901
198    9.10697269e-15
199    0.00217607706
200    0.0027555749
201    -0.000152879866
202    2.47898543e-14
203    2.02037765e-05
204    2.87007441e-16
205    4.52972088e-06
206    1.69249863e-16
207    -1.68855354e-05
208    1.4616769e-10
209    -3.17140368e-09
210    1.53784238e-08
211    -6.92773497e-08
212    7.95328503e-07
213    3.12180416e-06
214    -2.00957258e-06
215    3.09808557e-07
216    -1.21838321e-07
217    -1.35826035e-16
218    -3.75770228e-06
219    -2.41199487e-06
220    5.97186963e-07
221    -3.15152629e-15
222    -8.73604475e-05
223    -5.28274767e-05
224    -9.96601409e-06
225    -2.35544982e-15
226    -0.000526945421
227    -0.000210801426
228    -2.69375355e-05
229    8.82404221e-15
230    0.000198793052
231    -0.000294948428
232    0.000219681454
233    1.89383186e-14
234    5.73840153e-07
235    -3.75016517e-16
236    -8.19460696e-07
237    -1.71633266e-16
238    2.3684604e-06
239    -2.01321636e-09
240    -1.20309674e-08
241    -8.94333935e-08
242    -1.77165239e-07
243    -6.32518012e-07
244    4.63553448e-06
245    -2.72907511e-06
246    6.38253884e-06
247    9.85870813e-06
248    -7.81175337e-16
249    -4.56245936e-06
250    -1.82674921e-05
251    -5.98389681e-05
252    -3.89285679e-15
253    -0.000145472987
254    0.000113778746
255    -8.45052973e-06
256    3.41545883e-15
257    0.00345355228
258    -0.0017560696
259    0.000194177714
260    -3.85405134e-15
261    -0.000446018965
262    -0.000192885721
263    0.000187959746
264    8.83238354e-14
265    -4.51852566e-05
266    2.99566508e-16
267    -1.13252094e-06
268    4.64244004e-16
269    3.05091197e-05
270    -6.96074841e-06
271    -5.03354036e-05
272    5.80788042e-05
273    0.00103973074
274    1.69723304e-05
275    -2.31454465e-06
276    -9.75052981e-16
Sym=X
Ene=0.023369
Spin=Alpha
Occup=1
1    1.42931429e-09
2    -1.09710377e-08
3    1.05879321e-07
4    -2.80136023e-07
5    4.14194824e-06
6    1.54275154e-05
7    -9.2835348e-06
8    -4.19399503e-07
9    2.81002499e-06
10    -9.39498634e-16
11    -3.75589725e-05
12    -2.33258418e-06
13    -1.12856696e-05
14    -2.99569335e-15
15    0.000221258903
16    2.09060002e-05
17    0.000165228286
18    -4.6646749e-15
19    -0.00185438624
20    -0.000377312848
21    0.000200197133
22    -9.14151422e-15
23    3.97745161e-05
24    -9.28994287e-05
25    -0.000112664738
26    -5.65768718e-14
27    -7.6230229e-06
28    -5.14603732e-16
29    -2.07555475e-06
30    1.48119148e-17
31    8.16340813e-06
32    -9.43841055e-07
33    -6.47249456e-06
34    -2.03972634e-06
35    -0.000140322132
36    9.89676703e-07
37    -1.33271893e-06
38    -1.07901457e-15
39    1.3722954e-06
40    1.19887726e-05
41    0.000141094569
42    0.000321968595
43    -8.39127509e-07
44    4.51356479e-06
45    -2.51532765e-16
46    -9.90447021e-06
47    1.75461223e-05
48    -1.19304935e-05
49    -8.4506726e-05
50    1.14075638e-05
51    -1.51073672e-06
52    -4.4440153e-16
53    9.4395135e-10
54    -1.70077349e-09
55    5.76071605e-08
56    -6.02759888e-08
57    1.94022931e-06
58    8.11004154e-06
59    -3.88649717e-06
60    9.2012016e-07
61    -3.5709395e-07
62    -1.12497198e-15
63    -2.07509134e-05
64    -8.79178543e-06
65    -2.97631916e-06
66    1.63247448e-15
67    -1.41705543e-05
68    0.000173723562
69    -9.78764582e-05
70    -7.00510175e-15
71    0.0010087797
72    0.0010242166
73    -0.000126185955
74    -2.08110236e-14
75    0.000821355207
76    0.000175876204
77    0.000424228768
78    2.30651735e-14
79    7.12099865e-07
80    2.54580542e-16
81    7.28992144e-07
82    -3.43449815e-16
83    -5.55292717e-06
84    -1.65295522e-06
85    -1.25763518e-05
86    -6.165028e-05
87    -0.000209870654
88    -0.000518903897
89    -0.000244413365
90    -0.0007475309
91    -9.72783353e-07
92    2.17963092e-06
93    8.67084707e-16
94    -1.42848783e-05
95    -4.42139587e-06
96    -2.67051197e-06
97    -7.06304475e-16
98    5.74887823e-05
99    4.42832569e-05
100    -7.28584241e-06
101    -1.61799459e-15
102    0.000356323076
103    1.82465182e-05
104    -6.37742023e-05
105    8.59279065e-15
106    0.00213950374
107    0.000367460896
108    -7.78953969e-06
109    -1.40836794e-14
110    -1.26658219e-06
111    2.74139812e-16
112    -7.6420661e-07
113    -6.83841555e-17
114    5.53846889e-07
115    1.70693444e-08