                  Welcome to Q-Chem
     A Quantum Leap Into The Future Of Chemistry


 Q-Chem 5.2 (devel), Q-Chem, Inc., Pleasanton, CA (2019)

 Yihan Shao,  Zhengting Gan,  E. Epifanovsky,  A. T. B. Gilbert,  M. Wormit,  
 J. Kussmann,  A. W. Lange,  A. Behn,  Jia Deng,  Xintian Feng,  D. Ghosh,  
 M. Goldey,  P. R. Horn,  L. D. Jacobson,  I. Kaliman,  T. Kus,  A. Landau,  
 Jie Liu,  E. I. Proynov,  R. M. Richard,  R. P. Steele,  E. J. Sundstrom,  
 H. L. Woodcock III,  P. M. Zimmerman,  D. Zuev,  B. Albrecht,  E. Alguire,  
 S. A. Baeppler,  D. Barton,  Z. Benda,  Y. A. Bernard,  E. J. Berquist,  
 K. B. Bravaya,  H. Burton,  D. Casanova,  Chun-Min Chang,  Yunqing Chen,  
 A. Chien,  K. D. Closser,  M. P. Coons,  S. Coriani,  S. Dasgupta,  
 A. L. Dempwolff,  M. Diedenhofen,  Hainam Do,  R. G. Edgar,  Po-Tung Fang,  
 S. Faraji,  S. Fatehi,  Qingguo Feng,  K. D. Fenk,  J. Fosso-Tande,  
 J. Gayvert,  Qinghui Ge,  A. Ghysels,  G. Gidofalvi,  J. Gomes,  
 J. Gonthier,  A. Gunina,  D. Hait,  M. W. D. Hanson-Heine,  
 P. H. P. Harbach,  A. W. Hauser,  M. F. Herbst,  J. E. Herr,  
 E. G. Hohenstein,  Z. C. Holden,  Kerwin Hui,  B. C. Huynh,  T.-C. Jagau,  
 Hyunjun Ji,  B. Kaduk,  K. Khistyaev,  Jaehoon Kim,  P. Klunzinger,  K. Koh,  
 D. Kosenkov,  L. Koulias,  T. Kowalczyk,  C. M. Krauter,  A. Kunitsa,  
 Ka Un Lao,  A. Laurent,  K. V. Lawler,  Joonho Lee,  D. Lefrancois,  
 S. Lehtola,  D. S. Levine,  Yi-Pei Li,  You-Sheng Lin,  Fenglai Liu,  
 E. Livshits,  A. Luenser,  P. Manohar,  E. Mansoor,  S. F. Manzer,  
 Shan-Ping Mao,  Yuezhi Mao,  N. Mardirossian,  A. V. Marenich,  
 T. Markovich,  L. A. Martinez-Martinez,  S. A. Maurer,  N. J. Mayhall,  
 S. C. McKenzie,  J.-M. Mewes,  P. Morgante,  A. F. Morrison,  
 J. W. Mullinax,  K. Nanda,  T. S. Nguyen-Beck,  R. Olivares-Amaya,  
 J. A. Parkhill,  Zheng Pei,  T. M. Perrine,  F. Plasser,  P. Pokhilko,  
 S. Prager,  A. Prociuk,  E. Ramos,  D. R. Rehn,  F. Rob,  M. Scheurer,  
 M. Schneider,  N. Sergueev,  S. M. Sharada,  S. Sharma,  D. W. Small,  
 T. Stauch,  T. Stein,  Yu-Chuan Su,  A. J. W. Thom,  A. Tkatchenko,  
 T. Tsuchimochi,  N. M. Tubman,  L. Vogt,  M. L. Vidal,  O. Vydrov,  
 M. A. Watson,  J. Wenzel,  M. de Wergifosse,  T. A. Wesolowski,  A. White,  
 J. Witte,  A. Yamada,  Jun Yang,  K. Yao,  S. Yeganeh,  S. R. Yost,  
 Zhi-Qiang You,  A. Zech,  Igor Ying Zhang,  Xing Zhang,  Yan Zhao,  
 Ying Zhu,  B. R. Brooks,  G. K. L. Chan,  C. J. Cramer,  M. S. Gordon,  
 W. J. Hehre,  A. Klamt,  M. W. Schmidt,  C. D. Sherrill,  D. G. Truhlar,  
 A. Aspuru-Guzik,  R. Baer,  A. T. Bell,  N. A. Besley,  Jeng-Da Chai,  
 A. E. DePrince, III,  R. A. DiStasio Jr.,  A. Dreuw,  B. D. Dunietz,  
 T. R. Furlani,  Chao-Ping Hsu,  Yousung Jung,  Jing Kong,  D. S. Lambrecht,  
 WanZhen Liang,  C. Ochsenfeld,  V. A. Rassolov,  L. V. Slipchenko,  
 J. E. Subotnik,  T. Van Voorhis,  J. M. Herbert,  A. I. Krylov,  
 P. M. W. Gill,  M. Head-Gordon

 Contributors to earlier versions of Q-Chem not listed above: 
 R. D. Adamson,  B. Austin,  J. Baker,  G. J. O. Beran,  K. Brandhorst,  
 S. T. Brown,  E. F. C. Byrd,  A. K. Chakraborty,  C.-L. Cheng,  
 Siu Hung Chien,  D. M. Chipman,  D. L. Crittenden,  H. Dachsel,  
 R. J. Doerksen,  A. D. Dutoi,  L. Fusti-Molnar,  W. A. Goddard III,  
 A. Golubeva-Zadorozhnaya,  S. R. Gwaltney,  G. Hawkins,  A. Heyden,  
 S. Hirata,  G. Kedziora,  F. J. Keil,  C. Kelley,  Jihan Kim,  R. A. King,  
 R. Z. Khaliullin,  P. P. Korambath,  W. Kurlancheek,  A. M. Lee,  M. S. Lee,  
 S. V. Levchenko,  Ching Yeh Lin,  D. Liotard,  R. C. Lochan,  I. Lotan,  
 P. E. Maslen,  N. Nair,  D. P. O'Neill,  D. Neuhauser,  E. Neuscamman,  
 C. M. Oana,  R. Olson,  B. Peters,  R. Peverati,  P. A. Pieniazek,  
 Y. M. Rhee,  J. Ritchie,  M. A. Rohrdanz,  E. Rosta,  N. J. Russ,  
 H. F. Schaefer III,  N. E. Schultz,  N. Shenvi,  A. C. Simmonett,  A. Sodt,  
 D. Stuck,  K. S. Thanthiriwatte,  V. Vanovschi,  Tao Wang,  A. Warshel,  
 C. F. Williams,  Q. Wu,  X. Xu,  W. Zhang

 Please cite Q-Chem as follows:
 Y. Shao et al., Mol. Phys. 113, 184-215 (2015)
 DOI: 10.1080/00268976.2014.952696

 Q-Chem 5.2.0 for Intel X86 EM64T Linux

 Parts of Q-Chem use Armadillo 8.300.2 (Tropical Shenanigans).
 http://arma.sourceforge.net/

 Q-Chem begins on Wed Jun 12 18:30:03 2019  

n-62-24-2
Host: 0

     Scratch files written to /work1/malop/qc_8407562.hnode2/qchem7550//
NAlpha2: 58
NElect   58
Mult     1

Checking the input file for inconsistencies... 	...done.

--------------------------------------------------------------
User input:
--------------------------------------------------------------
$comment
Uracil XPS C K-edge 6-311(2+,+)G** (uc)
Optimized geometry for S2 at ccsd / aug-cc-pVDZ
$end

$molecule
0 1
C        -0.0581949473   -1.7976206857    0.0000000000
H        -2.0937197909   -1.3962500862    0.0000000000
H        -0.1994763750   -2.8770618511    0.0000000000
H         0.0643245546    2.0452320710    0.0000000000
C        -1.1889222032    0.4314192107    0.0000000000
O        -2.2890290202    0.9759697793    0.0000000000
C         1.3011427138    0.3335152409    0.0000000000
O         2.3251617259    1.0557727555    0.0000000000
N         0.0308489641    1.0316683625    0.0000000000
N        -1.1550971105   -0.9985052937    0.0000000000
C         1.2377799195   -1.0849263853    0.0000000000
H         2.1691699442   -1.6509592078    0.0000000000
$end

$rem
JOBTYPE SP
BASIS GENERAL
METHOD HF
n_frozen_core = 2
$end

$basis
H    0
6-311(2+,+)G**
****
O    0
S    1    1.000000
   8.58850000E+03    1.89515000E-03
S    1    1.000000
   1.29723000E+03    1.43859000E-02
S    1    1.000000
   2.99296000E+02    7.07320000E-02
S    1    1.000000
   8.73771000E+01    2.40001000E-01
S    1    1.000000
   2.56789000E+01    5.94797000E-01
S    1    1.000000
   3.74004000E+00    2.80802000E-01
SP   3    1.000000
   4.21175000E+01    1.13889000E-01   3.65114000E-02
   9.62837000E+00    9.20811000E-01   2.37153000E-01
   2.85332000E+00   -3.27447000E-03   8.19702000E-01
SP   1    1.000000
   9.05661000E-01    1.00000000E+00   1.00000000E+00
SP   1    1.000000
   2.55611000E-01    1.00000000E+00   1.00000000E+00
SP   1    1.000000
   8.45000000E-02    1.00000000E+00   1.00000000E+00
SP   1    1.000000
   2.54518072E-02    1.00000000E+00   1.00000000E+00
D    1    1.000000
   1.29200000E+00    1.00000000E+00
****
N    0
S    1    1.000000
   6.29348000E+03    1.96979000E-03
S    1    1.000000
   9.49044000E+02    1.49613000E-02
S    1    1.000000
   2.18776000E+02    7.35006000E-02
S    1    1.000000
   6.36916000E+01    2.48937000E-01
S    1    1.000000
   1.88282000E+01    6.02460000E-01
S    1    1.000000
   2.72023000E+00    2.56202000E-01
SP   3    1.000000
   3.06331000E+01    1.11906000E-01   3.83119000E-02
   7.02614000E+00    9.21666000E-01   2.37403000E-01
   2.11205000E+00   -2.56919000E-03   8.17592000E-01
SP   1    1.000000
   6.84009000E-01    1.00000000E+00   1.00000000E+00
SP   1    1.000000
   2.00878000E-01    1.00000000E+00   1.00000000E+00
SP   1    1.000000
   6.39000000E-02    1.00000000E+00   1.00000000E+00
SP   1    1.000000
   1.92469880E-02    1.00000000E+00   1.00000000E+00
D    1    1.000000
   9.13000000E-01    1.00000000E+00
****
C    0
S    1    1.000000
   4.56324000E+03    1.96665000E-03
S    1    1.000000
   6.82024000E+02    1.52306000E-02
S    1    1.000000
   1.54973000E+02    7.61269000E-02
S    1    1.000000
   4.44553000E+01    2.60801000E-01
S    1    1.000000
   1.30290000E+01    6.16462000E-01
S    1    1.000000
   1.82773000E+00    2.21006000E-01
SP   3    1.000000
   2.09642000E+01    1.14660000E-01   4.02487000E-02
   4.80331000E+00    9.19999000E-01   2.37594000E-01
   1.45933000E+00   -3.03068000E-03   8.15854000E-01
SP   1    1.000000
   4.83456000E-01    1.00000000E+00   1.00000000E+00
SP   1    1.000000
   1.45585000E-01    1.00000000E+00   1.00000000E+00
SP   1    1.000000
   4.38000000E-02    1.00000000E+00   1.00000000E+00
SP   1    1.000000
   1.31927711E-02    1.00000000E+00   1.00000000E+00
D    1    1.000000
   6.26000000E-01    1.00000000E+00
****
$end
--------------------------------------------------------------
 ----------------------------------------------------------------
             Standard Nuclear Orientation (Angstroms)
    I     Atom           X                Y                Z
 ----------------------------------------------------------------
    1      C      -0.1317389006    -1.7920898021    -0.0000000000
    2      H      -2.1496199998    -1.3097873901    -0.0000000000
    3      H      -0.3159955991    -2.8650311520    -0.0000000000
    4      H       0.1440774605     2.0428096324    -0.0000000000
    5      C      -1.1725887630     0.4803086117    -0.0000000000
    6      O      -2.2500820677     1.0683379552    -0.0000000000
    7      C       1.3115835701     0.2830871687     0.0000000000
    8      O       2.3636166765     0.9638934536     0.0000000000
    9      N       0.0701702980     1.0313899680    -0.0000000000
   10      N      -1.1958686845    -0.9498264415    -0.0000000000
   11      C       1.1916515800    -1.1316947256     0.0000000000
   12      H       2.0997050552    -1.7344545620     0.0000000000
 ----------------------------------------------------------------
 Molecular Point Group                 Cs    NOp =  2
 Largest Abelian Subgroup              Cs    NOp =  2
 Nuclear Repulsion Energy =         351.76271865 hartrees
 There are       29 alpha and       29 beta electrons
 Requested basis set is non-standard
 There are 116 shells and 276 basis functions

 Total QAlloc Memory Limit   2000 MB
 Mega-Array Size       188 MB
 MEM_STATIC part       192 MB

                       Distance Matrix (Angstroms)
             C (  1)   H (  2)   H (  3)   H (  4)   C (  5)   O (  6)
   H (  2)  2.074719
   H (  3)  1.088648  2.404363
   H (  4)  3.844805  4.062137  4.929358
   C (  5)  2.499433  2.039371  3.453267  2.043286
   O (  6)  3.559414  2.380246  4.383159  2.584878  1.227506
   C (  7)  2.527754  3.810142  3.543961  2.111799  2.491989  3.647202
   O (  8)  3.717828  5.053606  4.673434  2.467877  3.569118  4.614881
   N (  9)  2.830690  3.226233  3.915510  1.014116  1.359463  2.320547
   N ( 10)  1.357122  1.019418  2.107649  3.278922  1.430325  2.276918
   C ( 11)  1.479015  3.346014  2.297271  3.342886  2.861501  4.084810
   H ( 12)  2.232188  4.270492  2.667173  4.253493  3.951339  5.174582
             C (  7)   O (  8)   N (  9)   N ( 10)   C ( 11)
   O (  8)  1.253104
   N (  9)  1.449505  2.294439
   N ( 10)  2.794171  4.041319  2.351185
   C ( 11)  1.419856  2.401040  2.436525  2.394437
   H ( 12)  2.166012  2.711223  3.430584  3.387691  1.089899

 A cutoff of  1.0D-08 yielded   5044 shell pairs
 There are     33695 function pairs (     35678 Cartesian)
 Smallest overlap matrix eigenvalue = 3.44E-07

 Q-Chem warning in module stvman/mkSTV.C, line 318:

 Overlap eigenvalue is smaller than square root of threshold
 Use THRESH >= 12 to get rid of this warning

 Linear dependence detected in AO basis
 Tighter screening thresholds may be required for diffuse basis sets
 Use S2THRESH > 14 and THRESH = 14 in case of SCF convergence issues
 Number of orthogonalized atomic orbitals = 275
 Maximum deviation from orthogonality = 2.562E-10

 Scale SEOQF with 1.000000e-01/1.000000e-01/1.000000e-01

 Standard Electronic Orientation quadrupole field applied
 Nucleus-field energy     =     0.0000000101 hartrees
 Guess MOs from core Hamiltonian diagonalization

 -----------------------------------------------------------------------
  General SCF calculation program by
  Eric Jon Sundstrom, Paul Horn, Yuezhi Mao, Dmitri Zuev, Alec White,
  David Stuck, Shaama M.S., Shane Yost, Joonho Lee, David Small,
  Daniel Levine, Susi Lehtola, Hugh Burton, Evgeny Epifanovsky
 -----------------------------------------------------------------------
 Hartree-Fock
 using 4 threads for integral computing
 -------------------------------------------------------
 OpenMP Integral computing Module                
 Release: version 2.0, May 2017, Q-Chem Inc. Pleasanton 
 -------------------------------------------------------
 A restricted SCF calculation will be
 performed using DIIS
 SCF converges when DIIS error is below 1.0e-05
 ---------------------------------------
  Cycle       Energy         DIIS error
 ---------------------------------------
    1    -317.7063736553      1.18e-01  
    2    -299.0403056793      6.05e-02  
    3    -298.3813811153      7.95e-02  
    4    -381.0900959264      4.65e-02  
    5    -409.1296436482      1.79e-02  
    6    -410.5568114937      1.45e-02  
    7    -412.4493576446      2.69e-03  
    8    -412.5296466357      1.01e-03  
    9    -412.5425814621      4.06e-04  
   10    -412.5454765458      2.12e-04  
   11    -412.5465195801      7.98e-05  
   12    -412.5466611346      2.45e-05  
   13    -412.5466771241      1.29e-05  
   14    -412.5466797751      5.28e-06  Convergence criterion met
 ---------------------------------------
 SCF time:   CPU 96.19s  wall 26.00s 
 SCF   energy in the final basis set =     -412.5466797751
 Total energy in the final basis set =     -412.5466797751

 --------------------------------------------------------------
             Orbital Energies (a.u.) and Symmetries
 --------------------------------------------------------------

 Alpha MOs, Restricted
 -- Occupied --                  
-20.554 -20.538 -15.662 -15.640 -11.435 -11.393 -11.382 -11.272
  1 A'    2 A'    3 A'    4 A'    5 A'    6 A'    7 A'    8 A'                 
 -1.435  -1.380  -1.312  -1.251  -1.068  -0.949  -0.894  -0.804
  9 A'   10 A'   11 A'   12 A'   13 A'   14 A'   15 A'   16 A'                 
 -0.761  -0.737  -0.676  -0.665  -0.643  -0.615  -0.592  -0.560
 17 A'   18 A'   19 A'    1 A"   20 A'   21 A'   22 A'    2 A"                 
 -0.530  -0.488  -0.447  -0.436  -0.351
  3 A"   23 A'   24 A'    4 A"    5 A"                                         
 -- Virtual --                   
  0.003   0.018   0.019   0.022   0.031   0.033   0.035   0.035
 25 A'   26 A'    6 A"   27 A'   28 A'   29 A'   30 A'    7 A"                 
  0.039   0.044   0.046   0.048   0.051   0.053   0.055   0.055
  8 A"   31 A'   32 A'   33 A'    9 A"   34 A'   35 A'   10 A"                 
  0.066   0.067   0.072   0.073   0.085   0.086   0.089   0.097
 36 A'   37 A'   38 A'   11 A"   12 A"   39 A'   40 A'   41 A'                 
  0.109   0.112   0.117   0.117   0.120   0.127   0.130   0.136
 42 A'   13 A"   14 A"   43 A'   44 A'   45 A'   46 A'   47 A'                 
  0.138   0.141   0.150   0.162   0.164   0.173   0.178   0.189
 48 A'   49 A'   15 A"   50 A'   51 A'   16 A"   52 A'   17 A"                 
  0.196   0.207   0.208   0.230   0.232   0.240   0.242   0.249
 53 A'   54 A'   18 A"   55 A'   56 A'   57 A'   19 A"   58 A'                 
  0.256   0.267   0.272   0.276   0.279   0.283   0.285   0.298
 59 A'   60 A'   61 A'   20 A"   62 A'   21 A"   63 A'   64 A'                 
  0.329   0.330   0.337   0.351   0.379   0.390   0.399   0.406
 22 A"   65 A'   66 A'   67 A'   68 A'   69 A'   70 A'   23 A"                 
  0.407   0.419   0.423   0.435   0.440   0.451   0.464   0.478
 71 A'   72 A'   24 A"   73 A'   74 A'   75 A'   76 A'   77 A'                 
  0.479   0.493   0.517   0.539   0.556   0.605   0.625   0.632
 78 A'   79 A'   80 A'   81 A'   82 A'   83 A'   84 A'   85 A'                 
  0.695   0.735   0.743   0.744   0.770   0.771   0.795   0.818
 86 A'   87 A'   88 A'   25 A"   89 A'   26 A"   27 A"   90 A'                 
  0.826   0.868   0.874   0.931   0.943   0.956   0.968   0.978
 28 A"   91 A'   92 A'   93 A'   94 A'   95 A'   96 A'   97 A'                 
  1.006   1.024   1.037   1.068   1.087   1.092   1.108   1.152
 98 A'   99 A'   29 A"  100 A'   30 A"  101 A'  102 A'  103 A'                 
  1.200   1.234   1.248   1.263   1.283   1.359   1.362   1.389
 31 A"  104 A'   32 A"  105 A'  106 A'  107 A'   33 A"   34 A"                 
  1.402   1.413   1.423   1.457   1.463   1.516   1.518   1.532
 35 A"   36 A"  108 A'  109 A'   37 A"   38 A"  110 A'  111 A'                 
  1.556   1.602   1.704   1.744   1.779   1.798   1.874   1.876
112 A'  113 A'  114 A'  115 A'   39 A"  116 A'  117 A'   40 A"                 
  1.895   1.913   1.926   1.957   1.997   2.005   2.049   2.102
118 A'   41 A"  119 A'  120 A'  121 A'   42 A"  122 A'  123 A'                 
  2.113   2.175   2.204   2.213   2.264   2.271   2.286   2.344
124 A'  125 A'   43 A"  126 A'  127 A'  128 A'   44 A"  129 A'                 
  2.475   2.534   2.571   2.637   2.644   2.705   2.734   2.797
130 A'   45 A"  131 A'  132 A'   46 A"   47 A"  133 A'   48 A"                 
  2.810   2.914   2.935   2.974   3.027   3.051   3.077   3.110
134 A'  135 A'  136 A'  137 A'  138 A'  139 A'   49 A"  140 A'                 
  3.143   3.160   3.173   3.243   3.253   3.287   3.288   3.328
 50 A"  141 A'   51 A"  142 A'   52 A"  143 A'   53 A"  144 A'                 
  3.333   3.335   3.494   3.553   3.708   3.733   3.740   3.753
145 A'   54 A"  146 A'  147 A'  148 A'   55 A"   56 A"  149 A'                 
  3.812   3.867   3.892   3.967   4.018   4.111   4.226   4.294
150 A'  151 A'  152 A'  153 A'  154 A'  155 A'  156 A'   57 A"                 
  4.349   4.397   4.449   4.598   4.986   5.107   5.251   5.406
 58 A"  157 A'  158 A'  159 A'  160 A'  161 A'  162 A'  163 A'                 
  5.514   5.620   5.636   5.640   5.703   5.771   5.810   5.833
164 A'   59 A"   60 A"  165 A'  166 A'  167 A'  168 A'  169 A'                 
  6.423   6.436   7.617   7.699   9.838   9.901  20.615  20.673
170 A'  171 A'  172 A'  173 A'  174 A'  175 A'  176 A'  177 A'                 
 20.691  20.837  30.146  30.213  40.859  40.910  80.169  80.210
178 A'  179 A'  180 A'  181 A'  182 A'  183 A'  184 A'  185 A'                 
 80.233  80.370 116.272 116.329 159.212 159.253 321.996 322.029
186 A'  187 A'  188 A'  189 A'  190 A'  191 A'  192 A'  193 A'                 
322.052 322.181 460.376 460.427 631.916 631.9491431.5501431.582
194 A'  195 A'  196 A'  197 A'  198 A'  199 A'  200 A'  201 A'                 
*******1431.7242012.8532012.9002759.3152759.3448749.7708749.806
202 A'  203 A'  204 A'  205 A'  206 A'  207 A'  208 A'  209 A'                 
*******8749.936********************************
210 A'  211 A'  212 A'  213 A'  214 A'  215 A'                                 

 Beta MOs, Restricted
 -- Occupied --                  
-20.554 -20.538 -15.662 -15.640 -11.435 -11.393 -11.382 -11.272
  1 A'    2 A'    3 A'    4 A'    5 A'    6 A'    7 A'    8 A'                 
 -1.435  -1.380  -1.312  -1.251  -1.068  -0.949  -0.894  -0.804
  9 A'   10 A'   11 A'   12 A'   13 A'   14 A'   15 A'   16 A'                 
 -0.761  -0.737  -0.676  -0.665  -0.643  -0.615  -0.592  -0.560
 17 A'   18 A'   19 A'    1 A"   20 A'   21 A'   22 A'    2 A"                 
 -0.530  -0.488  -0.447  -0.436  -0.351
  3 A"   23 A'   24 A'    4 A"    5 A"                                         
 -- Virtual --                   
  0.003   0.018   0.019   0.022   0.031   0.033   0.035   0.035
 25 A'   26 A'    6 A"   27 A'   28 A'   29 A'   30 A'    7 A"                 
  0.039   0.044   0.046   0.048   0.051   0.053   0.055   0.055
  8 A"   31 A'   32 A'   33 A'    9 A"   34 A'   35 A'   10 A"                 
  0.066   0.067   0.072   0.073   0.085   0.086   0.089   0.097
 36 A'   37 A'   38 A'   11 A"   12 A"   39 A'   40 A'   41 A'                 
  0.109   0.112   0.117   0.117   0.120   0.127   0.130   0.136
 42 A'   13 A"   14 A"   43 A'   44 A'   45 A'   46 A'   47 A'                 
  0.138   0.141   0.150   0.162   0.164   0.173   0.178   0.189
 48 A'   49 A'   15 A"   50 A'   51 A'   16 A"   52 A'   17 A"                 
  0.196   0.207   0.208   0.230   0.232   0.240   0.242   0.249
 53 A'   54 A'   18 A"   55 A'   56 A'   57 A'   19 A"   58 A'                 
  0.256   0.267   0.272   0.276   0.279   0.283   0.285   0.298
 59 A'   60 A'   61 A'   20 A"   62 A'   21 A"   63 A'   64 A'                 
  0.329   0.330   0.337   0.351   0.379   0.390   0.399   0.406
 22 A"   65 A'   66 A'   67 A'   68 A'   69 A'   70 A'   23 A"                 
  0.407   0.419   0.423   0.435   0.440   0.451   0.464   0.478
 71 A'   72 A'   24 A"   73 A'   74 A'   75 A'   76 A'   77 A'                 
  0.479   0.493   0.517   0.539   0.556   0.605   0.625   0.632
 78 A'   79 A'   80 A'   81 A'   82 A'   83 A'   84 A'   85 A'                 
  0.695   0.735   0.743   0.744   0.770   0.771   0.795   0.818
 86 A'   87 A'   88 A'   25 A"   89 A'   26 A"   27 A"   90 A'                 
  0.826   0.868   0.874   0.931   0.943   0.956   0.968   0.978
 28 A"   91 A'   92 A'   93 A'   94 A'   95 A'   96 A'   97 A'                 
  1.006   1.024   1.037   1.068   1.087   1.092   1.108   1.152
 98 A'   99 A'   29 A"  100 A'   30 A"  101 A'  102 A'  103 A'                 
  1.200   1.234   1.248   1.263   1.283   1.359   1.362   1.389
 31 A"  104 A'   32 A"  105 A'  106 A'  107 A'   33 A"   34 A"                 
  1.402   1.413   1.423   1.457   1.463   1.516   1.518   1.532
 35 A"   36 A"  108 A'  109 A'   37 A"   38 A"  110 A'  111 A'                 
  1.556   1.602   1.704   1.744   1.779   1.798   1.874   1.876
112 A'  113 A'  114 A'  115 A'   39 A"  116 A'  117 A'   40 A"                 
  1.895   1.913   1.926   1.957   1.997   2.005   2.049   2.102
118 A'   41 A"  119 A'  120 A'  121 A'   42 A"  122 A'  123 A'                 
  2.113   2.175   2.204   2.213   2.264   2.271   2.286   2.344
124 A'  125 A'   43 A"  126 A'  127 A'  128 A'   44 A"  129 A'                 
  2.475   2.534   2.571   2.637   2.644   2.705   2.734   2.797
130 A'   45 A"  131 A'  132 A'   46 A"   47 A"  133 A'   48 A"                 
  2.810   2.914   2.935   2.974   3.027   3.051   3.077   3.110
134 A'  135 A'  136 A'  137 A'  138 A'  139 A'   49 A"  140 A'                 
  3.143   3.160   3.173   3.243   3.253   3.287   3.288   3.328
 50 A"  141 A'   51 A"  142 A'   52 A"  143 A'   53 A"  144 A'                 
  3.333   3.335   3.494   3.553   3.708   3.733   3.740   3.753
145 A'   54 A"  146 A'  147 A'  148 A'   55 A"   56 A"  149 A'                 
  3.812   3.867   3.892   3.967   4.018   4.111   4.226   4.294
150 A'  151 A'  152 A'  153 A'  154 A'  155 A'  156 A'   57 A"                 
  4.349   4.397   4.449   4.598   4.986   5.107   5.251   5.406
 58 A"  157 A'  158 A'  159 A'  160 A'  161 A'  162 A'  163 A'                 
  5.514   5.620   5.636   5.640   5.703   5.771   5.810   5.833
164 A'   59 A"   60 A"  165 A'  166 A'  167 A'  168 A'  169 A'                 
  6.423   6.436   7.617   7.699   9.838   9.901  20.615  20.673
170 A'  171 A'  172 A'  173 A'  174 A'  175 A'  176 A'  177 A'                 
 20.691  20.837  30.146  30.213  40.859  40.910  80.169  80.210
178 A'  179 A'  180 A'  181 A'  182 A'  183 A'  184 A'  185 A'                 
 80.233  80.370 116.272 116.329 159.212 159.253 321.996 322.029
186 A'  187 A'  188 A'  189 A'  190 A'  191 A'  192 A'  193 A'                 
322.052 322.181 460.376 460.427 631.916 631.9491431.5501431.582
194 A'  195 A'  196 A'  197 A'  198 A'  199 A'  200 A'  201 A'                 
*******1431.7242012.8532012.9002759.3152759.3448749.7708749.806
202 A'  203 A'  204 A'  205 A'  206 A'  207 A'  208 A'  209 A'                 
*******8749.936********************************
210 A'  211 A'  212 A'  213 A'  214 A'  215 A'                                 
 --------------------------------------------------------------

          Ground-State Mulliken Net Atomic Charges

     Atom                 Charge (a.u.)
  ----------------------------------------
      1 C                    -0.006652
      2 H                     0.356880
      3 H                     0.180329
      4 H                     0.397263
      5 C                     0.202442
      6 O                    -0.070416
      7 C                    -0.032664
      8 O                    -0.152650
      9 N                    -0.533087
     10 N                    -0.348983
     11 C                    -0.243226
     12 H                     0.250764
  ----------------------------------------
  Sum of atomic charges =     0.000000

 -----------------------------------------------------------------
                    Cartesian Multipole Moments
 -----------------------------------------------------------------
    Charge (ESU x 10^10)
                 0.0000
    Dipole Moment (Debye)
         X      -2.1638      Y      -5.2361      Z      -0.0000
       Tot       5.6656
    Quadrupole Moments (Debye-Ang)
        XX     -62.1442     XY       3.2987     YY     -37.0041
        XZ      -0.0000     YZ       0.0000     ZZ     -47.6457
    Octopole Moments (Debye-Ang^2)
       XXX     -17.7605    XXY     -35.3949    XYY      -5.5732
       YYY     -11.7415    XXZ       0.0000    XYZ       0.0000
       YYZ      -0.0000    XZZ      -2.7622    YZZ       4.7208
       ZZZ      -0.0000
    Hexadecapole Moments (Debye-Ang^3)
      XXXX    -747.8520   XXXY      12.3701   XXYY    -184.1192
      XYYY      19.5542   YYYY    -303.9117   XXXZ      -0.0000
      XXYZ       0.0000   XYYZ      -0.0000   YYYZ       0.0000
      XXZZ    -117.8707   XYZZ       3.4028   YYZZ     -79.5712
      XZZZ      -0.0000   YZZZ       0.0000   ZZZZ     -48.9526
 -----------------------------------------------------------------
Archival summary:
1\1\n-62-24-2\SP\HF\BasisUnspecified\2244\malop\WedJun1218:30:302019WedJun1218:30:302019\0\\#,HF,BasisUnspecified,\\0,1\N\H,1,1.01412\C,1,1.35946,2,118.093\O,3,1.22751,1,127.463,2,-0,0\N,3,1.43032,1,114.847,2,-180,0\H,5,1.01942,3,111.61,1,180,0\C,5,1.35712,3,127.429,1,-0,0\H,7,1.08865,5,118.617,3,-180,0\C,1,1.4495,2,116.902,3,-180,0\O,9,1.2531,1,116.011,2,0,0\C,9,1.41986,1,116.235,2,-180,0\H,11,1.0899,9,118.731,1,180,0\\HF=-412.54668\\@

 Total job time:  26.69s(wall), 96.59s(cpu) 
 Wed Jun 12 18:30:30 2019

        *************************************************************
        *                                                           *
        *  Thank you very much for using Q-Chem.  Have a nice day.  *
        *                                                           *
        *************************************************************


 
User input: 2 of 2 
 
                  Welcome to Q-Chem
     A Quantum Leap Into The Future Of Chemistry


 Q-Chem 5.2 (devel), Q-Chem, Inc., Pleasanton, CA (2019)

 Yihan Shao,  Zhengting Gan,  E. Epifanovsky,  A. T. B. Gilbert,  M. Wormit,  
 J. Kussmann,  A. W. Lange,  A. Behn,  Jia Deng,  Xintian Feng,  D. Ghosh,  
 M. Goldey,  P. R. Horn,  L. D. Jacobson,  I. Kaliman,  T. Kus,  A. Landau,  
 Jie Liu,  E. I. Proynov,  R. M. Richard,  R. P. Steele,  E. J. Sundstrom,  
 H. L. Woodcock III,  P. M. Zimmerman,  D. Zuev,  B. Albrecht,  E. Alguire,  
 S. A. Baeppler,  D. Barton,  Z. Benda,  Y. A. Bernard,  E. J. Berquist,  
 K. B. Bravaya,  H. Burton,  D. Casanova,  Chun-Min Chang,  Yunqing Chen,  
 A. Chien,  K. D. Closser,  M. P. Coons,  S. Coriani,  S. Dasgupta,  
 A. L. Dempwolff,  M. Diedenhofen,  Hainam Do,  R. G. Edgar,  Po-Tung Fang,  
 S. Faraji,  S. Fatehi,  Qingguo Feng,  K. D. Fenk,  J. Fosso-Tande,  
 J. Gayvert,  Qinghui Ge,  A. Ghysels,  G. Gidofalvi,  J. Gomes,  
 J. Gonthier,  A. Gunina,  D. Hait,  M. W. D. Hanson-Heine,  
 P. H. P. Harbach,  A. W. Hauser,  M. F. Herbst,  J. E. Herr,  
 E. G. Hohenstein,  Z. C. Holden,  Kerwin Hui,  B. C. Huynh,  T.-C. Jagau,  
 Hyunjun Ji,  B. Kaduk,  K. Khistyaev,  Jaehoon Kim,  P. Klunzinger,  K. Koh,  
 D. Kosenkov,  L. Koulias,  T. Kowalczyk,  C. M. Krauter,  A. Kunitsa,  
 Ka Un Lao,  A. Laurent,  K. V. Lawler,  Joonho Lee,  D. Lefrancois,  
 S. Lehtola,  D. S. Levine,  Yi-Pei Li,  You-Sheng Lin,  Fenglai Liu,  
 E. Livshits,  A. Luenser,  P. Manohar,  E. Mansoor,  S. F. Manzer,  
 Shan-Ping Mao,  Yuezhi Mao,  N. Mardirossian,  A. V. Marenich,  
 T. Markovich,  L. A. Martinez-Martinez,  S. A. Maurer,  N. J. Mayhall,  
 S. C. McKenzie,  J.-M. Mewes,  P. Morgante,  A. F. Morrison,  
 J. W. Mullinax,  K. Nanda,  T. S. Nguyen-Beck,  R. Olivares-Amaya,  
 J. A. Parkhill,  Zheng Pei,  T. M. Perrine,  F. Plasser,  P. Pokhilko,  
 S. Prager,  A. Prociuk,  E. Ramos,  D. R. Rehn,  F. Rob,  M. Scheurer,  
 M. Schneider,  N. Sergueev,  S. M. Sharada,  S. Sharma,  D. W. Small,  
 T. Stauch,  T. Stein,  Yu-Chuan Su,  A. J. W. Thom,  A. Tkatchenko,  
 T. Tsuchimochi,  N. M. Tubman,  L. Vogt,  M. L. Vidal,  O. Vydrov,  
 M. A. Watson,  J. Wenzel,  M. de Wergifosse,  T. A. Wesolowski,  A. White,  
 J. Witte,  A. Yamada,  Jun Yang,  K. Yao,  S. Yeganeh,  S. R. Yost,  
 Zhi-Qiang You,  A. Zech,  Igor Ying Zhang,  Xing Zhang,  Yan Zhao,  
 Ying Zhu,  B. R. Brooks,  G. K. L. Chan,  C. J. Cramer,  M. S. Gordon,  
 W. J. Hehre,  A. Klamt,  M. W. Schmidt,  C. D. Sherrill,  D. G. Truhlar,  
 A. Aspuru-Guzik,  R. Baer,  A. T. Bell,  N. A. Besley,  Jeng-Da Chai,  
 A. E. DePrince, III,  R. A. DiStasio Jr.,  A. Dreuw,  B. D. Dunietz,  
 T. R. Furlani,  Chao-Ping Hsu,  Yousung Jung,  Jing Kong,  D. S. Lambrecht,  
 WanZhen Liang,  C. Ochsenfeld,  V. A. Rassolov,  L. V. Slipchenko,  
 J. E. Subotnik,  T. Van Voorhis,  J. M. Herbert,  A. I. Krylov,  
 P. M. W. Gill,  M. Head-Gordon

 Contributors to earlier versions of Q-Chem not listed above: 
 R. D. Adamson,  B. Austin,  J. Baker,  G. J. O. Beran,  K. Brandhorst,  
 S. T. Brown,  E. F. C. Byrd,  A. K. Chakraborty,  C.-L. Cheng,  
 Siu Hung Chien,  D. M. Chipman,  D. L. Crittenden,  H. Dachsel,  
 R. J. Doerksen,  A. D. Dutoi,  L. Fusti-Molnar,  W. A. Goddard III,  
 A. Golubeva-Zadorozhnaya,  S. R. Gwaltney,  G. Hawkins,  A. Heyden,  
 S. Hirata,  G. Kedziora,  F. J. Keil,  C. Kelley,  Jihan Kim,  R. A. King,  
 R. Z. Khaliullin,  P. P. Korambath,  W. Kurlancheek,  A. M. Lee,  M. S. Lee,  
 S. V. Levchenko,  Ching Yeh Lin,  D. Liotard,  R. C. Lochan,  I. Lotan,  
 P. E. Maslen,  N. Nair,  D. P. O'Neill,  D. Neuhauser,  E. Neuscamman,  
 C. M. Oana,  R. Olson,  B. Peters,  R. Peverati,  P. A. Pieniazek,  
 Y. M. Rhee,  J. Ritchie,  M. A. Rohrdanz,  E. Rosta,  N. J. Russ,  
 H. F. Schaefer III,  N. E. Schultz,  N. Shenvi,  A. C. Simmonett,  A. Sodt,  
 D. Stuck,  K. S. Thanthiriwatte,  V. Vanovschi,  Tao Wang,  A. Warshel,  
 C. F. Williams,  Q. Wu,  X. Xu,  W. Zhang

 Please cite Q-Chem as follows:
 Y. Shao et al., Mol. Phys. 113, 184-215 (2015)
 DOI: 10.1080/00268976.2014.952696

 Q-Chem 5.2.0 for Intel X86 EM64T Linux

 Parts of Q-Chem use Armadillo 8.300.2 (Tropical Shenanigans).
 http://arma.sourceforge.net/

 Q-Chem begins on Wed Jun 12 18:30:30 2019  

n-62-24-2
Host: 0

     Scratch files written to /work1/malop/qc_8407562.hnode2/qchem7550//
NAlpha2: 60
NElect   58
Mult     3

Checking the input file for inconsistencies... 	...done.

--------------------------------------------------------------
User input:
--------------------------------------------------------------

$molecule
0 3
C        -0.0581949473   -1.7976206857    0.0000000000
H        -2.0937197909   -1.3962500862    0.0000000000
H        -0.1994763750   -2.8770618511    0.0000000000
H         0.0643245546    2.0452320710    0.0000000000
C        -1.1889222032    0.4314192107    0.0000000000
O        -2.2890290202    0.9759697793    0.0000000000
C         1.3011427138    0.3335152409    0.0000000000
O         2.3251617259    1.0557727555    0.0000000000
N         0.0308489641    1.0316683625    0.0000000000
N        -1.1550971105   -0.9985052937    0.0000000000
C         1.2377799195   -1.0849263853    0.0000000000
H         2.1691699442   -1.6509592078    0.0000000000
$end

$rem
   JOB_TYPE  =  SP
   BASIS  = general
   print_general_basis = true
   SCF_GUESS read
   mom_start = 1
   METHOD  =  EOM-CCSD
   CVS_IP_STATES = [4,0]
   !eom_davidson_convergence = 4
   cvs_eom_shift = 19500
   n_frozen_core = 2
   cc_trans_prop = true
   cc_memory = 40000
   cc_do_dyson = true
   MOLDEN_FORMAT = TRUE
$end

$basis
H    0
6-311(2+,+)G**
****
O    0
S    1    1.000000
   8.58850000E+03    1.89515000E-03
S    1    1.000000
   1.29723000E+03    1.43859000E-02
S    1    1.000000
   2.99296000E+02    7.07320000E-02
S    1    1.000000
   8.73771000E+01    2.40001000E-01
S    1    1.000000
   2.56789000E+01    5.94797000E-01
S    1    1.000000
   3.74004000E+00    2.80802000E-01
SP   3    1.000000
   4.21175000E+01    1.13889000E-01   3.65114000E-02
   9.62837000E+00    9.20811000E-01   2.37153000E-01
   2.85332000E+00   -3.27447000E-03   8.19702000E-01
SP   1    1.000000
   9.05661000E-01    1.00000000E+00   1.00000000E+00
SP   1    1.000000
   2.55611000E-01    1.00000000E+00   1.00000000E+00
SP   1    1.000000
   8.45000000E-02    1.00000000E+00   1.00000000E+00
SP   1    1.000000
   2.54518072E-02    1.00000000E+00   1.00000000E+00
D    1    1.000000
   1.29200000E+00    1.00000000E+00
****
N    0
S    1    1.000000
   6.29348000E+03    1.96979000E-03
S    1    1.000000
   9.49044000E+02    1.49613000E-02
S    1    1.000000
   2.18776000E+02    7.35006000E-02
S    1    1.000000
   6.36916000E+01    2.48937000E-01
S    1    1.000000
   1.88282000E+01    6.02460000E-01
S    1    1.000000
   2.72023000E+00    2.56202000E-01
SP   3    1.000000
   3.06331000E+01    1.11906000E-01   3.83119000E-02
   7.02614000E+00    9.21666000E-01   2.37403000E-01
   2.11205000E+00   -2.56919000E-03   8.17592000E-01
SP   1    1.000000
   6.84009000E-01    1.00000000E+00   1.00000000E+00
SP   1    1.000000
   2.00878000E-01    1.00000000E+00   1.00000000E+00
SP   1    1.000000
   6.39000000E-02    1.00000000E+00   1.00000000E+00
SP   1    1.000000
   1.92469880E-02    1.00000000E+00   1.00000000E+00
D    1    1.000000
   9.13000000E-01    1.00000000E+00
****
C    0
S    1    1.000000
   4.56324000E+03    1.96665000E-03
S    1    1.000000
   6.82024000E+02    1.52306000E-02
S    1    1.000000
   1.54973000E+02    7.61269000E-02
S    1    1.000000
   4.44553000E+01    2.60801000E-01
S    1    1.000000
   1.30290000E+01    6.16462000E-01
S    1    1.000000
   1.82773000E+00    2.21006000E-01
SP   3    1.000000
   2.09642000E+01    1.14660000E-01   4.02487000E-02
   4.80331000E+00    9.19999000E-01   2.37594000E-01
   1.45933000E+00   -3.03068000E-03   8.15854000E-01
SP   1    1.000000
   4.83456000E-01    1.00000000E+00   1.00000000E+00
SP   1    1.000000
   1.45585000E-01    1.00000000E+00   1.00000000E+00
SP   1    1.000000
   4.38000000E-02    1.00000000E+00   1.00000000E+00
SP   1    1.000000
   1.31927711E-02    1.00000000E+00   1.00000000E+00
D    1    1.000000
   6.26000000E-01    1.00000000E+00
****
$end
--------------------------------------------------------------
 ----------------------------------------------------------------
             Standard Nuclear Orientation (Angstroms)
    I     Atom           X                Y                Z
 ----------------------------------------------------------------
    1      C      -0.1317389006    -1.7920898021    -0.0000000000
    2      H      -2.1496199998    -1.3097873901    -0.0000000000
    3      H      -0.3159955991    -2.8650311520    -0.0000000000
    4      H       0.1440774605     2.0428096324    -0.0000000000
    5      C      -1.1725887630     0.4803086117    -0.0000000000
    6      O      -2.2500820677     1.0683379552    -0.0000000000
    7      C       1.3115835701     0.2830871687     0.0000000000
    8      O       2.3636166765     0.9638934536     0.0000000000
    9      N       0.0701702980     1.0313899680    -0.0000000000
   10      N      -1.1958686845    -0.9498264415    -0.0000000000
   11      C       1.1916515800    -1.1316947256     0.0000000000
   12      H       2.0997050552    -1.7344545620     0.0000000000
 ----------------------------------------------------------------
 Molecular Point Group                 Cs    NOp =  2
 Largest Abelian Subgroup              Cs    NOp =  2
 Nuclear Repulsion Energy =         351.76271865 hartrees
 There are       30 alpha and       28 beta electrons
 Requested basis set is non-standard
Basis set in general basis input format:
-----------------------------------------------------------------------
$basis
C    0
S    1    1.000000
   4.56324000E+03    1.96665000E-03 
S    1    1.000000
   6.82024000E+02    1.52306000E-02 
S    1    1.000000
   1.54973000E+02    7.61269000E-02 
S    1    1.000000
   4.44553000E+01    2.60801000E-01 
S    1    1.000000
   1.30290000E+01    6.16462000E-01 
S    1    1.000000
   1.82773000E+00    2.21006000E-01 
SP   3    1.000000
   2.09642000E+01    1.14660000E-01   4.02487000E-02 
   4.80331000E+00    9.19999000E-01   2.37594000E-01 
   1.45933000E+00   -3.03068000E-03   8.15854000E-01 
SP   1    1.000000
   4.83456000E-01    1.00000000E+00   1.00000000E+00 
SP   1    1.000000
   1.45585000E-01    1.00000000E+00   1.00000000E+00 
SP   1    1.000000
   4.38000000E-02    1.00000000E+00   1.00000000E+00 
SP   1    1.000000
   1.31927711E-02    1.00000000E+00   1.00000000E+00 
D    1    1.000000
   6.26000000E-01    1.00000000E+00 
****
H    0
S    3    1.000000
   3.38650000E+01    2.54938000E-02 
   5.09479000E+00    1.90373000E-01 
   1.15879000E+00    8.52161000E-01 
S    1    1.000000
   3.25840000E-01    1.00000000E+00 
S    1    1.000000
   1.02741000E-01    1.00000000E+00 
S    1    1.000000
   3.60000000E-02    1.00000000E+00 
P    1    1.000000
   7.50000000E-01    1.00000000E+00 
****
H    0
S    3    1.000000
   3.38650000E+01    2.54938000E-02 
   5.09479000E+00    1.90373000E-01 
   1.15879000E+00    8.52161000E-01 
S    1    1.000000
   3.25840000E-01    1.00000000E+00 
S    1    1.000000
   1.02741000E-01    1.00000000E+00 
S    1    1.000000
   3.60000000E-02    1.00000000E+00 
P    1    1.000000
   7.50000000E-01    1.00000000E+00 
****
H    0
S    3    1.000000
   3.38650000E+01    2.54938000E-02 
   5.09479000E+00    1.90373000E-01 
   1.15879000E+00    8.52161000E-01 
S    1    1.000000
   3.25840000E-01    1.00000000E+00 
S    1    1.000000
   1.02741000E-01    1.00000000E+00 
S    1    1.000000
   3.60000000E-02    1.00000000E+00 
P    1    1.000000
   7.50000000E-01    1.00000000E+00 
****
C    0
S    1    1.000000
   4.56324000E+03    1.96665000E-03 
S    1    1.000000
   6.82024000E+02    1.52306000E-02 
S    1    1.000000
   1.54973000E+02    7.61269000E-02 
S    1    1.000000
   4.44553000E+01    2.60801000E-01 
S    1    1.000000
   1.30290000E+01    6.16462000E-01 
S    1    1.000000
   1.82773000E+00    2.21006000E-01 
SP   3    1.000000
   2.09642000E+01    1.14660000E-01   4.02487000E-02 
   4.80331000E+00    9.19999000E-01   2.37594000E-01 
   1.45933000E+00   -3.03068000E-03   8.15854000E-01 
SP   1    1.000000
   4.83456000E-01    1.00000000E+00   1.00000000E+00 
SP   1    1.000000
   1.45585000E-01    1.00000000E+00   1.00000000E+00 
SP   1    1.000000
   4.38000000E-02    1.00000000E+00   1.00000000E+00 
SP   1    1.000000
   1.31927711E-02    1.00000000E+00   1.00000000E+00 
D    1    1.000000
   6.26000000E-01    1.00000000E+00 
****
O    0
S    1    1.000000
   8.58850000E+03    1.89515000E-03 
S    1    1.000000
   1.29723000E+03    1.43859000E-02 
S    1    1.000000
   2.99296000E+02    7.07320000E-02 
S    1    1.000000
   8.73771000E+01    2.40001000E-01 
S    1    1.000000
   2.56789000E+01    5.94797000E-01 
S    1    1.000000
   3.74004000E+00    2.80802000E-01 
SP   3    1.000000
   4.21175000E+01    1.13889000E-01   3.65114000E-02 
   9.62837000E+00    9.20811000E-01   2.37153000E-01 
   2.85332000E+00   -3.27447000E-03   8.19702000E-01 
SP   1    1.000000
   9.05661000E-01    1.00000000E+00   1.00000000E+00 
SP   1    1.000000
   2.55611000E-01    1.00000000E+00   1.00000000E+00 
SP   1    1.000000
   8.45000000E-02    1.00000000E+00   1.00000000E+00 
SP   1    1.000000
   2.54518072E-02    1.00000000E+00   1.00000000E+00 
D    1    1.000000
   1.29200000E+00    1.00000000E+00 
****
C    0
S    1    1.000000
   4.56324000E+03    1.96665000E-03 
S    1    1.000000
   6.82024000E+02    1.52306000E-02 
S    1    1.000000
   1.54973000E+02    7.61269000E-02 
S    1    1.000000
   4.44553000E+01    2.60801000E-01 
S    1    1.000000
   1.30290000E+01    6.16462000E-01 
S    1    1.000000
   1.82773000E+00    2.21006000E-01 
SP   3    1.000000
   2.09642000E+01    1.14660000E-01   4.02487000E-02 
   4.80331000E+00    9.19999000E-01   2.37594000E-01 
   1.45933000E+00   -3.03068000E-03   8.15854000E-01 
SP   1    1.000000
   4.83456000E-01    1.00000000E+00   1.00000000E+00 
SP   1    1.000000
   1.45585000E-01    1.00000000E+00   1.00000000E+00 
SP   1    1.000000
   4.38000000E-02    1.00000000E+00   1.00000000E+00 
SP   1    1.000000
   1.31927711E-02    1.00000000E+00   1.00000000E+00 
D    1    1.000000
   6.26000000E-01    1.00000000E+00 
****
O    0
S    1    1.000000
   8.58850000E+03    1.89515000E-03 
S    1    1.000000
   1.29723000E+03    1.43859000E-02 
S    1    1.000000
   2.99296000E+02    7.07320000E-02 
S    1    1.000000
   8.73771000E+01    2.40001000E-01 
S    1    1.000000
   2.56789000E+01    5.94797000E-01 
S    1    1.000000
   3.74004000E+00    2.80802000E-01 
SP   3    1.000000
   4.21175000E+01    1.13889000E-01   3.65114000E-02 
   9.62837000E+00    9.20811000E-01   2.37153000E-01 
   2.85332000E+00   -3.27447000E-03   8.19702000E-01 
SP   1    1.000000
   9.05661000E-01    1.00000000E+00   1.00000000E+00 
SP   1    1.000000
   2.55611000E-01    1.00000000E+00   1.00000000E+00 
SP   1    1.000000
   8.45000000E-02    1.00000000E+00   1.00000000E+00 
SP   1    1.000000
   2.54518072E-02    1.00000000E+00   1.00000000E+00 
D    1    1.000000
   1.29200000E+00    1.00000000E+00 
****
N    0
S    1    1.000000
   6.29348000E+03    1.96979000E-03 
S    1    1.000000
   9.49044000E+02    1.49613000E-02 
S    1    1.000000
   2.18776000E+02    7.35006000E-02 
S    1    1.000000
   6.36916000E+01    2.48937000E-01 
S    1    1.000000
   1.88282000E+01    6.02460000E-01 
S    1    1.000000
   2.72023000E+00    2.56202000E-01 
SP   3    1.000000
   3.06331000E+01    1.11906000E-01   3.83119000E-02 
   7.02614000E+00    9.21666000E-01   2.37403000E-01 
   2.11205000E+00   -2.56919000E-03   8.17592000E-01 
SP   1    1.000000
   6.84009000E-01    1.00000000E+00   1.00000000E+00 
SP   1    1.000000
   2.00878000E-01    1.00000000E+00   1.00000000E+00 
SP   1    1.000000
   6.39000000E-02    1.00000000E+00   1.00000000E+00 
SP   1    1.000000
   1.92469880E-02    1.00000000E+00   1.00000000E+00 
D    1    1.000000
   9.13000000E-01    1.00000000E+00 
****
N    0
S    1    1.000000
   6.29348000E+03    1.96979000E-03 
S    1    1.000000
   9.49044000E+02    1.49613000E-02 
S    1    1.000000
   2.18776000E+02    7.35006000E-02 
S    1    1.000000
   6.36916000E+01    2.48937000E-01 
S    1    1.000000
   1.88282000E+01    6.02460000E-01 
S    1    1.000000
   2.72023000E+00    2.56202000E-01 
SP   3    1.000000
   3.06331000E+01    1.11906000E-01   3.83119000E-02 
   7.02614000E+00    9.21666000E-01   2.37403000E-01 
   2.11205000E+00   -2.56919000E-03   8.17592000E-01 
SP   1    1.000000
   6.84009000E-01    1.00000000E+00   1.00000000E+00 
SP   1    1.000000
   2.00878000E-01    1.00000000E+00   1.00000000E+00 
SP   1    1.000000
   6.39000000E-02    1.00000000E+00   1.00000000E+00 
SP   1    1.000000
   1.92469880E-02    1.00000000E+00   1.00000000E+00 
D    1    1.000000
   9.13000000E-01    1.00000000E+00 
****
C    0
S    1    1.000000
   4.56324000E+03    1.96665000E-03 
S    1    1.000000
   6.82024000E+02    1.52306000E-02 
S    1    1.000000
   1.54973000E+02    7.61269000E-02 
S    1    1.000000
   4.44553000E+01    2.60801000E-01 
S    1    1.000000
   1.30290000E+01    6.16462000E-01 
S    1    1.000000
   1.82773000E+00    2.21006000E-01 
SP   3    1.000000
   2.09642000E+01    1.14660000E-01   4.02487000E-02 
   4.80331000E+00    9.19999000E-01   2.37594000E-01 
   1.45933000E+00   -3.03068000E-03   8.15854000E-01 
SP   1    1.000000
   4.83456000E-01    1.00000000E+00   1.00000000E+00 
SP   1    1.000000
   1.45585000E-01    1.00000000E+00   1.00000000E+00 
SP   1    1.000000
   4.38000000E-02    1.00000000E+00   1.00000000E+00 
SP   1    1.000000
   1.31927711E-02    1.00000000E+00   1.00000000E+00 
D    1    1.000000
   6.26000000E-01    1.00000000E+00 
****
H    0
S    3    1.000000
   3.38650000E+01    2.54938000E-02 
   5.09479000E+00    1.90373000E-01 
   1.15879000E+00    8.52161000E-01 
S    1    1.000000
   3.25840000E-01    1.00000000E+00 
S    1    1.000000
   1.02741000E-01    1.00000000E+00 
S    1    1.000000
   3.60000000E-02    1.00000000E+00 
P    1    1.000000
   7.50000000E-01    1.00000000E+00 
****
$end
-----------------------------------------------------------------------
 There are 116 shells and 276 basis functions
 WARNING: the default MEM_TOTAL is adjusted according to given MEM_STATIC!
 Total memory of 40192 MB is distributed as follows: 
   MEM_STATIC is set to 192 MB
   QALLOC/CCMAN JOB total memory use is  40000 MB
 Warning: actual memory use might exceed 40192 MB

 Total QAlloc Memory Limit  40192 MB
 Mega-Array Size       188 MB
 MEM_STATIC part       192 MB

                       Distance Matrix (Angstroms)
             C (  1)   H (  2)   H (  3)   H (  4)   C (  5)   O (  6)
   H (  2)  2.074719
   H (  3)  1.088648  2.404363
   H (  4)  3.844805  4.062137  4.929358
   C (  5)  2.499433  2.039371  3.453267  2.043286
   O (  6)  3.559414  2.380246  4.383159  2.584878  1.227506
   C (  7)  2.527754  3.810142  3.543961  2.111799  2.491989  3.647202
   O (  8)  3.717828  5.053606  4.673434  2.467877  3.569118  4.614881
   N (  9)  2.830690  3.226233  3.915510  1.014116  1.359463  2.320547
   N ( 10)  1.357122  1.019418  2.107649  3.278922  1.430325  2.276918
   C ( 11)  1.479015  3.346014  2.297271  3.342886  2.861501  4.084810
   H ( 12)  2.232188  4.270492  2.667173  4.253493  3.951339  5.174582
             C (  7)   O (  8)   N (  9)   N ( 10)   C ( 11)
   O (  8)  1.253104
   N (  9)  1.449505  2.294439
   N ( 10)  2.794171  4.041319  2.351185
   C ( 11)  1.419856  2.401040  2.436525  2.394437
   H ( 12)  2.166012  2.711223  3.430584  3.387691  1.089899

 A cutoff of  1.0D-14 yielded   5420 shell pairs
 There are     35693 function pairs (     37863 Cartesian)
 Smallest overlap matrix eigenvalue = 3.44E-07
 Linear dependence detected in AO basis
 Tighter screening thresholds may be required for diffuse basis sets
 Use S2THRESH > 14 and THRESH = 14 in case of SCF convergence issues
 Number of orthogonalized atomic orbitals = 275
 Maximum deviation from orthogonality = 2.562E-10

 Scale SEOQF with 1.000000e-01/1.000000e-01/1.000000e-01

 Standard Electronic Orientation quadrupole field applied
 Nucleus-field energy     =     0.0000000101 hartrees
 Guess MOs from SCF MO coefficient file

 -----------------------------------------------------------------------
  General SCF calculation program by
  Eric Jon Sundstrom, Paul Horn, Yuezhi Mao, Dmitri Zuev, Alec White,
  David Stuck, Shaama M.S., Shane Yost, Joonho Lee, David Small,
  Daniel Levine, Susi Lehtola, Hugh Burton, Evgeny Epifanovsky
 -----------------------------------------------------------------------
 Hartree-Fock
 using 4 threads for integral computing
 -------------------------------------------------------
 OpenMP Integral computing Module                
 Release: version 2.0, May 2017, Q-Chem Inc. Pleasanton 
 -------------------------------------------------------
 A unrestricted SCF calculation will be
 performed using DIIS
 SCF converges when DIIS error is below 1.0e-08
 ---------------------------------------
  Cycle       Energy         DIIS error
 ---------------------------------------
Maximum Overlap Method Active
 MOM overlap:    29.9 / 30
Maximum Overlap Method Active
 MOM overlap:    28.0 / 28
    1    -412.2846968520      8.88e-04  
Maximum Overlap Method Active
 MOM overlap:    29.99 / 30
Maximum Overlap Method Active
 MOM overlap:    28.00 / 28
    2    -412.3418076643      4.60e-04  
Maximum Overlap Method Active
 MOM overlap:    29.99 / 30
Maximum Overlap Method Active
 MOM overlap:    28.00 / 28
    3    -412.3564108298      1.88e-04  
Maximum Overlap Method Active
 MOM overlap:    29.99 / 30
Maximum Overlap Method Active
 MOM overlap:    28.00 / 28
    4    -412.3638562976      1.42e-04  
Maximum Overlap Method Active
 MOM overlap:    30.00 / 30
Maximum Overlap Method Active
 MOM overlap:    28.00 / 28
    5    -412.3681650104      8.65e-05  
Maximum Overlap Method Active
 MOM overlap:    30.00 / 30
Maximum Overlap Method Active
 MOM overlap:    28.00 / 28
    6    -412.3705769129      6.63e-05  
Maximum Overlap Method Active
 MOM overlap:    30.00 / 30
Maximum Overlap Method Active
 MOM overlap:    28.00 / 28
    7    -412.3718046649      5.34e-05  
Maximum Overlap Method Active
 MOM overlap:    30.00 / 30
Maximum Overlap Method Active
 MOM overlap:    28.00 / 28
    8    -412.3731769817      4.19e-05  
Maximum Overlap Method Active
 MOM overlap:    30.00 / 30
Maximum Overlap Method Active
 MOM overlap:    28.00 / 28
    9    -412.3742965085      2.43e-05  
Maximum Overlap Method Active
 MOM overlap:    30.00 / 30
Maximum Overlap Method Active
 MOM overlap:    28.00 / 28
   10    -412.3746546924      1.04e-05  
Maximum Overlap Method Active
 MOM overlap:    30.00 / 30
Maximum Overlap Method Active
 MOM overlap:    28.00 / 28
   11    -412.3746907591      5.92e-06  
Maximum Overlap Method Active
 MOM overlap:    30.00 / 30
Maximum Overlap Method Active
 MOM overlap:    28.00 / 28
   12    -412.3747043701      4.23e-06  
Maximum Overlap Method Active
 MOM overlap:    30.00 / 30
Maximum Overlap Method Active
 MOM overlap:    28.00 / 28
   13    -412.3747117573      3.32e-06  
Maximum Overlap Method Active
 MOM overlap:    30.00 / 30
Maximum Overlap Method Active
 MOM overlap:    28.00 / 28
   14    -412.3747174890      2.62e-06  
Maximum Overlap Method Active
 MOM overlap:    30.00 / 30
Maximum Overlap Method Active
 MOM overlap:    28.00 / 28
   15    -412.3747229168      1.76e-06  
Maximum Overlap Method Active
 MOM overlap:    30.00 / 30
Maximum Overlap Method Active
 MOM overlap:    28.00 / 28
   16    -412.3747253498      1.05e-06  
Maximum Overlap Method Active
 MOM overlap:    30.00 / 30
Maximum Overlap Method Active
 MOM overlap:    28.00 / 28
   17    -412.3747261315      7.37e-07  
Maximum Overlap Method Active
 MOM overlap:    30.00 / 30
Maximum Overlap Method Active
 MOM overlap:    28.00 / 28
   18    -412.3747264985      6.59e-07  
Maximum Overlap Method Active
 MOM overlap:    30.00 / 30
Maximum Overlap Method Active
 MOM overlap:    28.00 / 28
   19    -412.3747267335      5.35e-07  
Maximum Overlap Method Active
 MOM overlap:    30.00 / 30
Maximum Overlap Method Active
 MOM overlap:    28.00 / 28
   20    -412.3747269760      4.20e-07  
Maximum Overlap Method Active
 MOM overlap:    30.00 / 30
Maximum Overlap Method Active
 MOM overlap:    28.00 / 28
   21    -412.3747271442      3.50e-07  
Maximum Overlap Method Active
 MOM overlap:    30.00 / 30
Maximum Overlap Method Active
 MOM overlap:    28.00 / 28
   22    -412.3747272610      2.43e-07  
Maximum Overlap Method Active
 MOM overlap:    30.00 / 30
Maximum Overlap Method Active
 MOM overlap:    28.00 / 28
   23    -412.3747273368      1.49e-07  
Maximum Overlap Method Active
 MOM overlap:    30.00 / 30
Maximum Overlap Method Active
 MOM overlap:    28.00 / 28
   24    -412.3747273694      5.93e-08  
Maximum Overlap Method Active
 MOM overlap:    30.00 / 30
Maximum Overlap Method Active
 MOM overlap:    28.00 / 28
   25    -412.3747273717      2.69e-08  
Maximum Overlap Method Active
 MOM overlap:    30.00 / 30
Maximum Overlap Method Active
 MOM overlap:    28.00 / 28
   26    -412.3747273719      1.55e-08  
   27    -412.3747273720      8.67e-09  Convergence criterion met
Maximum Overlap Method Active
 MOM overlap:    30.00 / 30
Maximum Overlap Method Active
 MOM overlap:    28.00 / 28
Maximum Overlap Method Active
 MOM overlap:    30.00 / 30
Maximum Overlap Method Active
 MOM overlap:    28.00 / 28
 ---------------------------------------
 SCF time:   CPU 295.14s  wall 79.00s 
<S^2> =          2.291536933
 SCF   energy in the final basis set =     -412.3747273720
 Total energy in the final basis set =     -412.3747273720


 ------------------------------------------------------------------------------

   CCMAN2: suite of methods based on coupled cluster
           and equation of motion theories.

   Components:
   * libvmm-1.3-trunk
     by Evgeny Epifanovsky, Ilya Kaliman.
   * libtensor-2.5-trunk
     by Evgeny Epifanovsky, Michael Wormit, Dmitry Zuev, Sam Manzer, 
        Ilya Kaliman.
   * libcc-2.5-trunk
     by Evgeny Epifanovsky, Arik Landau, Tomasz Kus, Kirill Khistyaev, 
        Dmitry Zuev, Prashant Manohar, Xintian Feng, Anna Krylov, 
        Matthew Goldey, Alec White, Thomas Jagau, Kaushik Nanda, 
        Anastasia Gunina, Alexander Kunitsa, Joonho Lee.

   CCMAN original authors:
   Anna I. Krylov, C. David Sherrill, Steven R. Gwaltney,
   Edward F. C. Byrd (2000)
   Sergey V. Levchenko, Lyudmila V. Slipchenko, Tao Wang,
   Ana-Maria C. Cristian (2003)
   Piotr A. Pieniazek, C. Melania Oana, Evgeny Epifanovsky (2007)
   Prashant Manohar (2009)

 ------------------------------------------------------------------------------


 Allocating and initializing 40000MB of RAM...
 Calculation will run on 4 cores.


 Alpha MOs, Unrestricted
 -- Occupied --                  
-20.693 -20.623 -15.772 -15.700 -11.497 -11.457 -11.456 -11.400
  1 A'    2 A'    3 A'    4 A'    5 A'    6 A'    7 A'    8 A'                 
 -1.527  -1.501  -1.402  -1.326  -1.184  -1.026  -0.972  -0.892
  9 A'   10 A'   11 A'   12 A'   13 A'   14 A'   15 A'   16 A'                 
 -0.847  -0.803  -0.777  -0.752  -0.728  -0.708  -0.705  -0.692
 17 A'   18 A'   19 A'    1 A"   20 A'    2 A"   21 A'   22 A'                 
 -0.614  -0.593  -0.553  -0.544  -0.501  -0.119
  3 A"   23 A'    4 A"   24 A'    5 A"   25 A'                                 
 -- Virtual --                   
 -0.007   0.003   0.009   0.012   0.023   0.024   0.028   0.031
  6 A"   26 A'   27 A'    7 A"   28 A'   29 A'   30 A'    8 A"                 
  0.032   0.038   0.042   0.045   0.045   0.049   0.051   0.054
  9 A"   31 A'   32 A'   33 A'   34 A'   35 A'   10 A"   36 A'                 
  0.060   0.061   0.066   0.067   0.072   0.073   0.076   0.079
 11 A"   37 A'   38 A'   39 A'   12 A"   40 A'   13 A"   41 A'                 
  0.089   0.100   0.104   0.105   0.106   0.112   0.117   0.124
 14 A"   42 A'   43 A'   44 A'   15 A"   45 A'   46 A'   47 A'                 
  0.132   0.137   0.138   0.141   0.146   0.158   0.167   0.170
 48 A'   49 A'   50 A'   51 A'   16 A"   17 A"   52 A'   53 A'                 
  0.172   0.192   0.195   0.201   0.211   0.215   0.221   0.226
 18 A"   54 A'   55 A'   56 A'   19 A"   57 A'   20 A"   58 A'                 
  0.233   0.240   0.241   0.247   0.248   0.261   0.273   0.292
 59 A'   60 A'   61 A'   62 A'   21 A"   63 A'   64 A'   65 A'                 
  0.295   0.300   0.303   0.336   0.341   0.351   0.358   0.369
 22 A"   66 A'   67 A'   68 A'   23 A"   69 A'   70 A'   71 A'                 
  0.380   0.382   0.393   0.400   0.404   0.418   0.431   0.436
 72 A'   24 A"   73 A'   74 A'   75 A'   76 A'   77 A'   78 A'                 
  0.446   0.464   0.499   0.508   0.557   0.565   0.576   0.633
 79 A'   80 A'   81 A'   82 A'   83 A'   84 A'   85 A'   86 A'                 
  0.664   0.672   0.693   0.711   0.718   0.728   0.742   0.769
 25 A"   87 A'   88 A'   26 A"   89 A'   27 A"   90 A'   28 A"                 
  0.812   0.824   0.860   0.887   0.895   0.903   0.924   0.949
 91 A'   92 A'   93 A'   94 A'   95 A'   96 A'   97 A'   98 A'                 
  0.952   0.965   0.998   1.021   1.028   1.034   1.086   1.110
 99 A'   29 A"  100 A'  101 A'   30 A"  102 A'  103 A'   31 A"                 
  1.161   1.184   1.204   1.218   1.258   1.298   1.298   1.339
 32 A"  104 A'  105 A'  106 A'   33 A"  107 A'   34 A"   35 A"                 
  1.344   1.345   1.380   1.391   1.426   1.448   1.474   1.478
 36 A"  108 A'   37 A"  109 A'  110 A'   38 A"  111 A'  112 A'                 
  1.532   1.628   1.668   1.710   1.723   1.800   1.804   1.816
113 A'  114 A'  115 A'   39 A"  116 A'   40 A"  117 A'  118 A'                 
  1.847   1.853   1.890   1.922   1.939   1.967   2.037   2.053
119 A'   41 A"  120 A'  121 A'   42 A"  122 A'  123 A'  124 A'                 
  2.099   2.110   2.134   2.189   2.189   2.209   2.271   2.396
 43 A"  125 A'  126 A'  127 A'   44 A"  128 A'  129 A'  130 A'                 
  2.455   2.498   2.559   2.574   2.626   2.665   2.713   2.737
 45 A"  131 A'  132 A'   46 A"   47 A"  133 A'   48 A"  134 A'                 
  2.840   2.871   2.906   2.952   2.967   2.988   3.038   3.071
135 A'  136 A'  137 A'  138 A'   49 A"  139 A'  140 A'   50 A"                 
  3.100   3.103   3.122   3.159   3.191   3.200   3.224   3.225
141 A'   51 A"   52 A"  142 A'  143 A'   53 A"  144 A'   54 A"                 
  3.266   3.417   3.463   3.586   3.609   3.667   3.676   3.733
145 A'  146 A'  147 A'   55 A"  148 A'  149 A'   56 A"  150 A'                 
  3.791   3.809   3.893   3.933   4.038   4.130   4.188   4.284
151 A'  152 A'  153 A'  154 A'  155 A'  156 A'   57 A"   58 A"                 
  4.309   4.371   4.493   4.913   5.024   5.176   5.320   5.427
157 A'  158 A'  159 A'  160 A'  161 A'  162 A'  163 A'  164 A'                 
  5.456   5.553   5.570   5.625   5.642   5.707   5.768   6.302
 59 A"   60 A"  165 A'  166 A'  167 A'  168 A'  169 A'  170 A'                 
  6.366   7.521   7.632   9.702   9.820  20.530  20.598  20.618
171 A'  172 A'  173 A'  174 A'  175 A'  176 A'  177 A'  178 A'                 
 20.738  30.043  30.149  40.726  40.826  80.091  80.136  80.160
179 A'  180 A'  181 A'  182 A'  183 A'  184 A'  185 A'  186 A'                 
 80.269 116.170 116.266 159.084 159.170 321.922 321.954 321.980
187 A'  188 A'  189 A'  190 A'  191 A'  192 A'  193 A'  194 A'                 
322.080 460.277 460.363 631.791 631.8681431.4801431.5051431.530
195 A'  196 A'  197 A'  198 A'  199 A'  200 A'  201 A'  202 A'                 
*******2012.7572012.8362759.1922759.2648749.7048749.7288749.748
203 A'  204 A'  205 A'  206 A'  207 A'  208 A'  209 A'  210 A'                 
***************************************
211 A'  212 A'  213 A'  214 A'  215 A'                                         

 Beta MOs, Unrestricted
 -- Occupied --                  
-20.666 -20.619 -15.756 -15.702 -11.499 -11.469 -11.462 -11.381
  1 A'    2 A'    3 A'    4 A'    5 A'    6 A'    7 A'    8 A'                 
 -1.499  -1.462  -1.377  -1.316  -1.136  -1.025  -0.967  -0.876
  9 A'   10 A'   11 A'   12 A'   13 A'   14 A'   15 A'   16 A'                 
 -0.841  -0.798  -0.756  -0.719  -0.719  -0.695  -0.682  -0.608
 17 A'   18 A'   19 A'   20 A'    1 A"   21 A'   22 A'    2 A"                 
 -0.568  -0.561  -0.534  -0.463
 23 A'    3 A"   24 A'    4 A"                                                 
 -- Virtual --                   
 -0.100   0.003   0.013   0.015   0.019   0.024   0.028   0.031
  5 A"   25 A'   26 A'    6 A"   27 A'    7 A"   28 A'   29 A'                 
  0.033   0.034   0.038   0.045   0.045   0.049   0.051   0.052
  8 A"   30 A'    9 A"   31 A'   32 A'   33 A'   34 A'   35 A'                 
  0.056   0.063   0.063   0.067   0.068   0.075   0.080   0.082
 10 A"   36 A'   11 A"   37 A'   38 A'   39 A'   12 A"   40 A'                 
  0.086   0.087   0.099   0.103   0.109   0.110   0.115   0.119
 13 A"   41 A'   14 A"   42 A'   43 A'   44 A'   45 A'   46 A'                 
  0.122   0.131   0.137   0.141   0.142   0.152   0.158   0.172
 15 A"   47 A'   48 A'   49 A'   50 A'   51 A'   16 A"   52 A'                 
  0.176   0.179   0.181   0.198   0.206   0.209   0.214   0.219
 17 A"   18 A"   53 A'   54 A'   55 A'   56 A'   19 A"   57 A'                 
  0.228   0.236   0.237   0.243   0.246   0.253   0.255   0.264
 58 A'   20 A"   59 A'   60 A'   61 A'   62 A'   21 A"   63 A'                 
  0.281   0.296   0.306   0.307   0.311   0.337   0.352   0.362
 64 A'   65 A'   66 A'   22 A"   67 A'   68 A'   69 A'   70 A'                 
  0.374   0.375   0.385   0.389   0.396   0.402   0.407   0.422
 23 A"   71 A'   72 A'   24 A"   73 A'   74 A'   75 A'   76 A'                 
  0.436   0.437   0.449   0.466   0.502   0.512   0.561   0.569
 77 A'   78 A'   79 A'   80 A'   81 A'   82 A'   83 A'   84 A'                 
  0.585   0.634   0.677   0.687   0.696   0.702   0.723   0.743
 85 A'   86 A'   87 A'   25 A"   88 A'   26 A"   89 A'   27 A"                 
  0.748   0.757   0.817   0.828   0.867   0.890   0.899   0.906
 90 A'   28 A"   91 A'   92 A'   93 A'   94 A'   95 A'   96 A'                 
  0.927   0.951   0.959   0.993   1.006   1.023   1.034   1.035
 97 A'   98 A'   99 A'   29 A"  100 A'  101 A'  102 A'   30 A"                 
  1.089   1.130   1.175   1.185   1.210   1.220   1.293   1.301
103 A'   31 A"   32 A"  104 A'  105 A'  106 A'   33 A"  107 A'                 
  1.332   1.347   1.352   1.358   1.392   1.397   1.435   1.443
 34 A"   35 A"  108 A'   36 A"   37 A"  109 A'  110 A'   38 A"                 
  1.478   1.484   1.536   1.633   1.674   1.715   1.725   1.802
111 A'  112 A'  113 A'  114 A'  115 A'   39 A"  116 A'   40 A"                 
  1.805   1.827   1.848   1.850   1.893   1.928   1.944   1.966
117 A'  118 A'  119 A'   41 A"  120 A'  121 A'   42 A"  122 A'                 
  2.037   2.053   2.110   2.118   2.140   2.200   2.207   2.211
123 A'  124 A'  125 A'   43 A"  126 A'  127 A'   44 A"  128 A'                 
  2.269   2.400   2.464   2.502   2.563   2.580   2.639   2.669
129 A'  130 A'   45 A"  131 A'  132 A'   46 A"   47 A"  133 A'                 
  2.726   2.739   2.844   2.882   2.909   2.962   2.992   2.993
 48 A"  134 A'  135 A'  136 A'  137 A'  138 A'   49 A"  139 A'                 
  3.042   3.060   3.105   3.106   3.166   3.173   3.215   3.225
140 A'   50 A"   51 A"  141 A'   52 A"  142 A'  143 A'   53 A"                 
  3.247   3.249   3.273   3.422   3.468   3.616   3.635   3.672
144 A'   54 A"  145 A'  146 A'  147 A'  148 A'   55 A"  149 A'                 
  3.683   3.738   3.793   3.813   3.895   3.937   4.041   4.140
 56 A"  150 A'  151 A'  152 A'  153 A'  154 A'  155 A'  156 A'                 
  4.226   4.283   4.318   4.375   4.500   4.915   5.028   5.180
 57 A"   58 A"  157 A'  158 A'  159 A'  160 A'  161 A'  162 A'                 
  5.326   5.426   5.540   5.565   5.572   5.627   5.656   5.713
163 A'  164 A'   59 A"   60 A"  165 A'  166 A'  167 A'  168 A'                 
  5.769   6.313   6.368   7.536   7.632   9.729   9.827  20.532
169 A'  170 A'  171 A'  172 A'  173 A'  174 A'  175 A'  176 A'                 
 20.598  20.614  20.740  30.052  30.149  40.740  40.829  80.091
177 A'  178 A'  179 A'  180 A'  181 A'  182 A'  183 A'  184 A'                 
 80.136  80.159  80.270 116.174 116.266 159.088 159.171 321.921
185 A'  186 A'  187 A'  188 A'  189 A'  190 A'  191 A'  192 A'                 
321.953 321.979 322.080 460.278 460.363 631.792 631.8681431.480
193 A'  194 A'  195 A'  196 A'  197 A'  198 A'  199 A'  200 A'                 
*******1431.5301431.6232012.7572012.8362759.1922759.2648749.704
201 A'  202 A'  203 A'  204 A'  205 A'  206 A'  207 A'  208 A'                 
*******8749.7488749.832********************************
209 A'  210 A'  211 A'  212 A'  213 A'  214 A'  215 A'                         

 Occupation and symmetry of molecular orbitals

 Point group: Cs (2 irreducible representations).

                           A'   A"    All 
 ------------------------------------------
 All molecular orbitals:
  - Alpha                  215  60    275 
  - Beta                   215  60    275 
 ------------------------------------------
 Alpha orbitals:
  - Frozen occupied        2    0     2   
  - Active occupied        23   5     28  
  - Active virtual         190  55    245 
  - Frozen virtual         0    0     0   
 ------------------------------------------
 Beta orbitals:
  - Frozen occupied        2    0     2   
  - Active occupied        22   4     26  
  - Active virtual         191  56    247 
  - Frozen virtual         0    0     0   
 ------------------------------------------

 Import integrals:   CPU 0.00 s  wall 0.00 s

 Import integrals:   CPU 1804.10 s  wall 815.92 s

 MP2 amplitudes:   CPU 3.75 s  wall 2.54 s

Running a double precision version
           CCSD T amplitudes will be solved using DIIS.

           Start     Size      MaxIter   EConv     TConv     
           3         7         100       1.00e-06  1.00e-04  
 ------------------------------------------------------------------------------
           Energy (a.u.)   Ediff      Tdiff       Comment
 ------------------------------------------------------------------------------
          -413.74236856                           
     1    -413.72872127   1.36e-02   9.86e-01     Step took 04.06.
     2    -413.77707208   4.84e-02   1.30e-01     
     3    -413.77632122   7.51e-04   5.43e-02     
     4    -413.78304179   6.72e-03   2.19e-02     Switched to DIIS steps.
     5    -413.78860985   5.57e-03   2.33e-02     
     6    -413.79001242   1.40e-03   8.62e-03     
     7    -413.79063950   6.27e-04   5.23e-03     
     8    -413.79085397   2.14e-04   2.45e-03     
     9    -413.79105323   1.99e-04   2.00e-03     
    10    -413.79109174   3.85e-05   1.21e-03     
    11    -413.79111417   2.24e-05   6.03e-04     
    12    -413.79113379   1.96e-05   4.78e-04     
    13    -413.79113255   1.24e-06   1.80e-04     
    14    -413.79113737   4.82e-06   1.39e-04     
    15    -413.79113276   4.61e-06   7.61e-05     
    16    -413.79113007   2.69e-06   4.74e-05     
    17    -413.79112750   2.57e-06   3.16e-05     
    18    -413.79112588   1.62e-06   1.72e-05     
    19    -413.79112513   7.45e-07   1.32e-05     
 ------------------------------------------------------------------------------
          -413.79112513                           CCSD T converged.

End of double precision
 SCF energy                 = -412.37472737
 MP2 energy                 = -413.74236856
 CCSD correlation energy    =   -1.41639776
 CCSD total energy          = -413.79112513

 CCSD  T1^2 = 0.1227  T2^2 = 0.4398  Leading amplitudes:

 Amplitude    Orbitals with energies
 -0.0857       3 (A") A                  ->    6 (A") A                   
              -0.6135                         -0.0073                     
 -0.0852       2 (A") A                  ->    6 (A") A                   
              -0.7081                         -0.0073                     
  0.0844       2 (A") A                  ->    13 (A") A                  
              -0.7081                          0.0756                     
  0.0826       4 (A") B                  ->    7 (A") B                   
              -0.4629                          0.0237                     

 Amplitude    Orbitals with energies
  0.0355       3 (A") A      3 (A") B    ->    6 (A") A      5 (A") B     
              -0.6135       -0.5611           -0.0073       -0.1004       
 -0.0355       3 (A") A      3 (A") B    ->    5 (A") B      6 (A") A     
              -0.6135       -0.5611           -0.1004       -0.0073       
 -0.0355       3 (A") B      3 (A") A    ->    6 (A") A      5 (A") B     
              -0.5611       -0.6135           -0.0073       -0.1004       
  0.0355       3 (A") B      3 (A") A    ->    5 (A") B      6 (A") A     
              -0.5611       -0.6135           -0.1004       -0.0073       

 Computing CCSD intermediates for later calculations in double precision
 Finished.

Running a double precision version
           CCSD Lambda amplitudes will be solved using DIIS.
           Start     Size      MaxIter   EConv     LConv     
           3         7         100       1.00e-06  1.00e-04  
 ------------------------------------------------------------------------------
            Enorm      Ldiff       Comment
 ------------------------------------------------------------------------------
     1     8.89e-02   5.12e-02     
     2     2.99e-02   7.32e-03     
     3     1.61e-02   1.04e-03     
     4     8.73e-03   1.38e-03     Switched to DIIS steps.
     5     4.02e-03   7.93e-04     
     6     2.61e-03   4.11e-06     
     7     1.53e-03   2.25e-04     
     8     9.78e-04   3.29e-04     
     9     5.53e-04   3.63e-04     
    10     3.50e-04   2.02e-04     
    11     2.05e-04   1.42e-04     
    12     9.72e-05   8.44e-05     
    13     5.61e-05   2.17e-05     
    14     2.88e-05   7.01e-06     
    15     1.67e-05   2.85e-07     
    16     1.05e-05   1.16e-06     
    17     6.43e-06   1.22e-06     
    18     4.22e-06   1.06e-06     
    19     2.84e-06   8.80e-07     
    20     1.99e-06   6.46e-07     
    21     1.44e-06   5.59e-07     
    22     9.41e-07   5.11e-07     
 ------------------------------------------------------------------------------
                                   CCSD Lambda converged.

 CCSD calculation:   CPU 22189.22 s  wall 25011.63 s

        Solving for CVS-EOMIP-CCSD A' transitions.

Warning! Not enough singles to form guess subspace. Doubles guess vectors will be generated.
In case of poor EOM convergence, reduce requested IP_STATES.

Running a double precision version
      CVS-EOMIP-CCSD/MP2 right amplitudes will be solved using Davidson.
        Amplitudes will be solved using shifted  algorithm.
     Hard-coded thresholds: 
     LinDepThresh=1.00e-15  NormThresh=1.00e-06  ReorthogonThresh=1.00e-02

      Roots     MaxVec    MaxIter   Precond   Conv      Shift    
      4         120       60        1         1.00e-05  1.95e+01  
 ------------------------------------------------------------------------------
      Iter ConvRoots NVecs ResNorm Current eigenvalues (eV)
 ------------------------------------------------------------------------------
      0    0      4     9.86e-01   561.5482   562.5946   564.2682   564.5638   
      1    0      8     2.74e+00   558.0552   559.1644   564.1517   564.3752   
      2    0      12    6.60e-02   541.8954   543.0764   562.0171   562.5713   
      3    0      16    2.63e-02   541.1461   542.2265   560.7760   561.4747   
      4    0      20    3.03e-02   541.1349   542.1674   560.0945   560.9325   
      5    0      24    1.19e-02   541.1261   542.1463   559.3413   560.5552   
      6    1      28    1.26e-02   541.1271*  542.1468   558.4062   560.2978   
      7    2      31    9.48e-03   541.1271*  542.1481*  557.7987   560.1169   
      8    2      33    2.67e-03   541.1271*  542.1481*  557.4907   560.0029   
      9    2      35    1.13e-03   541.1271*  542.1481*  557.4366   559.9524   
      10   2      37    2.90e-04   541.1271*  542.1481*  557.4282   559.9312   
      11   2      39    2.15e-04   541.1271*  542.1481*  557.4257   559.9232   
      12   2      41    4.62e-04   541.1271*  542.1481*  557.4245   559.9097   
      13   2      43    4.15e-02   541.1271*  542.1480*  557.4240   559.2608   
      14   3      45    1.29e-02   541.1271*  542.1479*  557.4238*  557.7628   
      15   3      46    6.51e-03   541.1271*  542.1481*  557.2025   557.4238*  
      16   3      47    1.53e-03   541.1271*  542.1484*  557.0038   557.4238*  
      17   3      48    6.95e-04   541.1271*  542.1485*  556.9454   557.4238*  
      18   3      49    5.02e-04   541.1271*  542.1485*  556.9155   557.4238*  
      19   3      50    2.04e-04   541.1271*  542.1485*  556.8943   557.4238*  
      20   3      51    2.79e-04   541.1271*  542.1485*  556.8803   557.4238*  
      21   3      52    5.95e-04   541.1271*  542.1485*  556.8613   557.4238*  
      22   2      53    2.44e-02   541.1271*  542.1485*  556.8047   557.3919   
      23   2      55    1.48e-02   541.1271*  542.1485*  556.3345   556.9499   
      24   2      57    6.47e-03   541.1271*  542.1485*  555.8211   556.9163   
      25   2      59    1.04e-03   541.1271*  542.1485*  555.6913   556.9126   
      26   2      61    7.41e-04   541.1271*  542.1485*  555.6423   556.9103   
      27   2      63    7.29e-04   541.1271*  542.1485*  555.5939   556.9062   
      28   2      65    4.24e-04   541.1271*  542.1485*  555.5553   556.9007   
      29   2      67    7.04e-05   541.1271*  542.1485*  555.5447   556.8984   
      30   2      69    2.08e-05   541.1271*  542.1485*  555.5426   556.8976   
      31   3      71    8.86e-06   541.1271*  542.1485*  555.5415   556.8971*  
      32   4      72    2.74e-06   541.1271*  542.1485*  555.5411*  556.8969*  

     Davidson procedure converged

 EOMIP transition 1/A'
 Total energy = -393.90506944 a.u.  Excitation energy = 541.1271 eV.
 R1^2 = 0.9005  R2_CCVV^2 = 0.0010  R2_COVV^2 = 0.0990  Res^2 = 1.54e-06
 Conv-d = yes

 Amplitude    Transitions between orbitals
 -0.9489       2 (A') A                  ->    infty        

              Summary of significant orbitals:

               Number  Type             Irrep      Energy
               2       Occ  Alpha       2 (A')    -20.6234


 EOMIP transition 2/A'
 Total energy = -393.86753407 a.u.  Excitation energy = 542.1485 eV.
 R1^2 = 0.8773  R2_CCVV^2 = 0.0009  R2_COVV^2 = 0.1222  Res^2 = 9.70e-07
 Conv-d = yes

 Amplitude    Transitions between orbitals
 -0.9366       1 (A') A                  ->    infty        

              Summary of significant orbitals:

               Number  Type             Irrep      Energy
               1       Occ  Alpha       1 (A')    -20.6934


 EOMIP transition 3/A'
 Total energy = -393.37536408 a.u.  Excitation energy = 555.5411 eV.
 R1^2 = 0.0000  R2_CCVV^2 = 0.0000  R2_COVV^2 = 1.0000  Res^2 = 6.26e-06
 Conv-d = yes

 Amplitude    Transitions between orbitals
  0.7241       1 (A') B      5 (A") A    ->    5 (A") B     
  0.6538       1 (A') B      5 (A") A    ->    7 (A") B     
 -0.3867       1 (A') B      5 (A") A    ->    23 (A") B    
  0.3631       1 (A') B      5 (A") A    ->    15 (A") B    
 -0.3067       1 (A') B      4 (A") A    ->    5 (A") B     
  0.2853       1 (A') B      5 (A") A    ->    14 (A") B    
 -0.2738       1 (A') B      4 (A") A    ->    7 (A") B     
 -0.2225       1 (A') B      5 (A") A    ->    34 (A") B    
  0.2087       1 (A') B      5 (A") A    ->    24 (A") B    
 -0.1878       1 (A') B      5 (A") A    ->    9 (A") B     
 -0.1865       1 (A') B      5 (A") A    ->    37 (A") B    
 -0.1714       1 (A') B      5 (A") A    ->    6 (A") B     
 -0.1549       1 (A') B      5 (A") A    ->    20 (A") B    
  0.1446       1 (A') B      5 (A") A    ->    13 (A") B    
  0.1422       1 (A') B      5 (A") A    ->    17 (A") B    
  0.1403       1 (A') B      4 (A") A    ->    23 (A") B    
 -0.1367       1 (A') B      5 (A") A    ->    36 (A") B    
  0.1210       1 (A') B      5 (A") A    ->    33 (A") B    
 -0.1137       1 (A') B      5 (A") A    ->    59 (A") B    
 -0.1124       1 (A') B      3 (A") A    ->    7 (A") B     
 -0.1108       1 (A') B      4 (A") A    ->    15 (A") B    

              Summary of significant orbitals:

               Number  Type             Irrep      Energy
               1       Occ  Beta        1 (A')    -20.6665
               25      Occ  Alpha       3 (A")     -0.6135
               27      Occ  Alpha       4 (A")     -0.5532
               29      Occ  Alpha       5 (A")     -0.5014
               29      Vir  Beta        5 (A")     -0.1004
               32      Vir  Beta        6 (A")      0.0151
               34      Vir  Beta        7 (A")      0.0237
               39      Vir  Beta        9 (A")      0.0377
               53      Vir  Beta       13 (A")      0.0865
               55      Vir  Beta       14 (A")      0.0993
               61      Vir  Beta       15 (A")      0.1219
               69      Vir  Beta       17 (A")      0.1759
               78      Vir  Beta       20 (A")      0.2357
               93      Vir  Beta       23 (A")      0.3737
               96      Vir  Beta       24 (A")      0.3894
               139     Vir  Beta       33 (A")      1.2926
               141     Vir  Beta       34 (A")      1.3321
               144     Vir  Beta       36 (A")      1.3577
               145     Vir  Beta       37 (A")      1.3924
               223     Vir  Beta       59 (A")      5.5401


 EOMIP transition 4/A'
 Total energy = -393.32554106 a.u.  Excitation energy = 556.8969 eV.
 R1^2 = 0.0206  R2_CCVV^2 = 0.0000  R2_COVV^2 = 0.9794  Res^2 = 2.19e-06
 Conv-d = yes

 Amplitude    Transitions between orbitals
  0.5801       1 (A') A      4 (A") B    ->    5 (A") B     
  0.5621       1 (A') A      4 (A") B    ->    7 (A") B     
 -0.3833       1 (A') A      4 (A") B    ->    23 (A") B    
  0.3632       1 (A') A      4 (A") B    ->    15 (A") B    
 -0.3574       1 (A') A      2 (A") B    ->    5 (A") B     
 -0.3315       1 (A') A      2 (A") B    ->    7 (A") B     
  0.2700       1 (A') A      4 (A") B    ->    14 (A") B    
  0.2280       1 (A') A      2 (A") B    ->    23 (A") B    
 -0.2245       1 (A') A      4 (A") B    ->    34 (A") B    
 -0.2199       1 (A') A      2 (A") B    ->    15 (A") B    
  0.2057       1 (A') A      4 (A") B    ->    24 (A") B    
 -0.1977       1 (A') A      4 (A") B    ->    20 (A") B    
 -0.1841       1 (A') A      4 (A") B    ->    37 (A") B    
 -0.1634       1 (A') A      2 (A") B    ->    14 (A") B    
 -0.1632       1 (A') A      4 (A") B    ->    9 (A") B     
  0.1580       1 (A') A      4 (A") B    ->    13 (A") B    
  0.1531       1 (A') A      4 (A") B    ->    17 (A") B    
 -0.1475       1 (A') A      4 (A") B    ->    6 (A") B     
 -0.1369       1 (A') A      4 (A") B    ->    36 (A") B    
  0.1330       1 (A') A      2 (A") B    ->    34 (A") B    
  0.1256       1 (A') A      4 (A") B    ->    33 (A") B    
 -0.1252       1 (A') A      2 (A") B    ->    24 (A") B    
 -0.1250       1 (A') A      4 (A") B    ->    59 (A") B    
 -0.1154       1 (A') A      1 (A") B    ->    7 (A") B     
  0.1148       1 (A') A      2 (A") B    ->    37 (A") B    
  0.1119       1 (A') A      2 (A") B    ->    20 (A") B    

              Summary of significant orbitals:

               Number  Type             Irrep      Energy
               1       Occ  Alpha       1 (A')    -20.6934
               21      Occ  Beta        1 (A")     -0.7193
               24      Occ  Beta        2 (A")     -0.6079
               28      Occ  Beta        4 (A")     -0.4629
               29      Vir  Beta        5 (A")     -0.1004
               32      Vir  Beta        6 (A")      0.0151
               34      Vir  Beta        7 (A")      0.0237
               39      Vir  Beta        9 (A")      0.0377
               53      Vir  Beta       13 (A")      0.0865
               55      Vir  Beta       14 (A")      0.0993
               61      Vir  Beta       15 (A")      0.1219
               69      Vir  Beta       17 (A")      0.1759
               78      Vir  Beta       20 (A")      0.2357
               93      Vir  Beta       23 (A")      0.3737
               96      Vir  Beta       24 (A")      0.3894
               139     Vir  Beta       33 (A")      1.2926
               141     Vir  Beta       34 (A")      1.3321
               144     Vir  Beta       36 (A")      1.3577
               145     Vir  Beta       37 (A")      1.3924
               223     Vir  Beta       59 (A")      5.5401


Running a double precision version
      CVS-EOMIP-CCSD/MP2 left amplitudes will be solved using Davidson.
        Amplitudes will be solved using MOM  algorithm.
     Hard-coded thresholds: 
     LinDepThresh=1.00e-15  NormThresh=1.00e-06  ReorthogonThresh=1.00e-02

      Roots     MaxVec    MaxIter   Precond   Conv      Shift    
      4         120       60        1         1.00e-05  1.95e+01  
[...]
213   -3.1621e-16
214   -9.7469e-16
215   1.3586e-15
216   -1.1989e-15
217   3.3991e-15
218   -2.2018e-15
219   3.2810e-15
220   -3.4701e-15
221   -7.5161e-16
222   -1.6841e-16
223   -8.7878e-16
224   3.8471e-16
225   -2.2855e-16
226   1.9656e-16
227   -1.8532e-15
228   4.8511e-16
229   6.7911e-16
230   1.7429e-15
231   -1.4742e-15
232   6.2857e-16
233   -2.3457e-15
234   -6.3129e-16
235   -1.3440e-15
236   -8.9962e-16
237   -2.2459e-16
238   2.1225e-16
239   3.6968e-17
240   -6.1105e-17
241   3.3331e-16
242   3.0375e-17
243   6.0241e-16
244   2.8685e-16
245   -3.4127e-16
246   -4.2113e-16
247   -1.1920e-16
248   2.3126e-16
249   2.0671e-16
250   -2.3314e-16
251   1.4000e-16
252   -6.8232e-16
253   -1.0278e-16
254   1.0841e-16
255   1.9451e-16
256   -1.7108e-16
257   5.8929e-16
258   -7.2565e-16
259   5.7697e-17
260   7.3508e-16
261   -5.5519e-16
262   -9.1737e-17
263   4.6666e-17
264   1.2689e-16
265   -4.1300e-16
266   4.6459e-16
267   -3.3818e-16
268   2.5840e-16
269   1.2847e-16
270   -3.9890e-17
271   -3.6800e-16
272   -1.7139e-16
273   3.1464e-16
274   -2.2459e-17

Decomposition over AOs for the right alpha Dyson orbital:
1.42931429e-09
-1.09710377e-08
1.05879321e-07
-2.80136023e-07
4.14194824e-06
1.54275154e-05
-9.28353480e-06
-4.19399503e-07
2.81002499e-06
-9.39498634e-16
-3.75589725e-05
-2.33258418e-06
-1.12856696e-05
-2.99569335e-15
2.21258903e-04
2.09060002e-05
1.65228286e-04
-4.66467490e-15
-1.85438624e-03
-3.77312848e-04
2.00197133e-04
-9.14151422e-15
3.97745161e-05
-9.28994287e-05
-1.12664738e-04
-5.65768718e-14
-7.62302290e-06
-5.14603732e-16
-2.07555475e-06
1.48119148e-17
8.16340813e-06
-9.43841055e-07
-6.47249456e-06
-2.03972634e-06
-1.40322132e-04
9.89676703e-07
-1.33271893e-06
-1.07901457e-15
1.37229540e-06
1.19887726e-05
1.41094569e-04
3.21968595e-04
-8.39127509e-07
4.51356479e-06
-2.51532765e-16
-9.90447021e-06
1.75461223e-05
-1.19304935e-05
-8.45067260e-05
1.14075638e-05
-1.51073672e-06
-4.44401530e-16
9.43951350e-10
-1.70077349e-09
5.76071605e-08
-6.02759888e-08
1.94022931e-06
8.11004154e-06
-3.88649717e-06
9.20120160e-07
-3.57093950e-07
-1.12497198e-15
-2.07509134e-05
-8.79178543e-06
-2.97631916e-06
1.63247448e-15
-1.41705543e-05
1.73723562e-04
-9.78764582e-05
-7.00510175e-15
1.00877970e-03
1.02421660e-03
-1.26185955e-04
-2.08110236e-14
8.21355207e-04
1.75876204e-04
4.24228768e-04
2.30651735e-14
7.12099865e-07
2.54580542e-16
7.28992144e-07
-3.43449815e-16
-5.55292717e-06
-1.65295522e-06
-1.25763518e-05
-6.16502800e-05
-2.09870654e-04
-5.18903897e-04
-2.44413365e-04
-7.47530900e-04
-9.72783353e-07
2.17963092e-06
8.67084707e-16
-1.42848783e-05
-4.42139587e-06
-2.67051197e-06
-7.06304475e-16
5.74887823e-05
4.42832569e-05
-7.28584241e-06
-1.61799459e-15
3.56323076e-04
1.82465182e-05
-6.37742023e-05
8.59279065e-15
2.13950374e-03
3.67460896e-04
-7.78953969e-06
-1.40836794e-14
-1.26658219e-06
2.74139812e-16
-7.64206610e-07
-6.83841555e-17
5.53846889e-07
1.70693444e-08
7.36607393e-08
8.49026365e-07
1.69715630e-06
2.88430853e-05
1.88257060e-04
-3.89863765e-05
-1.22981971e-05
-1.10860315e-05
-7.67867302e-16
-4.99810036e-04
-4.92610149e-04
-3.21539393e-04
-1.86449503e-16
6.89614382e-04
2.48334538e-04
1.55228530e-04
-3.82112617e-15
3.91221119e-04
3.28950985e-03
1.73482039e-03
-7.74264100e-15
-7.22200414e-04
3.29821371e-04
-7.23236937e-04
-7.56290372e-14
-2.69442656e-04
5.89389250e-16
1.15958192e-04
1.77317087e-16
-1.29599457e-04
-1.04348111e-03
-7.93786580e-03
-3.89212900e-02
-1.32457816e-01
-3.27822712e-01
-1.55993007e-01
-4.70930018e-01
1.55900638e-03
9.98119426e-04
1.81707287e-16
-5.44603934e-03
-7.27704056e-04
-4.73375569e-04
-8.36512059e-16
9.32353938e-04
2.58960934e-04
1.62267211e-04
3.95138163e-15
-3.07326992e-03
1.97518863e-04
1.72055492e-04
-3.43256190e-15
-6.53668374e-03
1.24632962e-03
3.93090917e-04
7.16693626e-15
1.44981481e-04
2.57815969e-16
-2.34523180e-04
8.67627923e-17
5.51600838e-05
2.06469520e-10
-2.19392346e-08
5.83467270e-08
-4.53582450e-07
4.46964884e-06
1.93996974e-05
-1.38966194e-05
1.35195972e-05
-3.66466858e-06
6.73088220e-17
-1.86064849e-05
-3.86417187e-05
1.38512493e-05
-1.58171723e-16
-7.81524518e-05
2.78509461e-06
4.20590906e-05
3.61063042e-16
1.49554610e-04
7.38788196e-05
-1.42574626e-04
9.15393119e-15
2.18619878e-03
2.74106065e-03
-1.52597828e-04
2.49236319e-14
2.02159163e-05
2.86863872e-16
4.55189786e-06
1.77278283e-16
-1.71072066e-05
1.53278552e-10
-3.39149458e-09
1.62515959e-08
-7.39912949e-08
8.47438093e-07
3.33537800e-06
-2.15736637e-06
2.76010046e-07
-1.09712023e-08
-1.44254368e-16
-4.07422572e-06
-2.34015946e-06
2.35105764e-07
-3.14917326e-15
-8.70207075e-05
-5.27581377e-05
-9.57830006e-06
-2.41077347e-15
-5.28152259e-04
-2.09893339e-04
-2.65800759e-05
8.91585074e-15
2.09955942e-04
-2.97200574e-04
2.24098995e-04
1.88700063e-14
6.31489330e-07
-3.78383820e-16
-7.92304059e-07
-1.71220177e-16
2.54374384e-06
-2.01319087e-09
-1.20362336e-08
-8.94201561e-08
-1.77267683e-07
-6.31314406e-07
4.64296908e-06
-2.73256595e-06
6.37567421e-06
9.86179282e-06
-7.67333606e-16
-4.56234039e-06
-1.82146156e-05
-5.98695223e-05
-3.86519342e-15
-1.46699180e-04
1.14335505e-04
-8.94231970e-06
3.43563041e-15
3.43776542e-03
-1.75225949e-03
1.92693852e-04
-3.73837521e-15
-4.45247223e-04
-1.92581590e-04
1.88483371e-04
8.83326088e-14
-4.52110205e-05
3.01832364e-16
-1.14618884e-06
4.65721273e-16
3.05158377e-05
-6.96678237e-06
-5.04391048e-05
5.79173661e-05
1.03981517e-03
1.69921492e-05
-2.32161053e-06
-9.63874889e-16
   *****

     End transition

 Dyson orbitals calculation:   CPU 0.15 s  wall 0.42 s

 Total ccman2 time:   CPU 24268.17 s  wall 25957.72 s


 --------------------------------------------------------------
             Orbital Energies (a.u.) and Symmetries
 --------------------------------------------------------------

 Alpha MOs, Unrestricted
 -- Occupied --                  
-20.693 -20.623 -15.772 -15.700 -11.497 -11.457 -11.456 -11.400
  1 A'    2 A'    3 A'    4 A'    5 A'    6 A'    7 A'    8 A'                 
 -1.527  -1.501  -1.402  -1.326  -1.184  -1.026  -0.972  -0.892
  9 A'   10 A'   11 A'   12 A'   13 A'   14 A'   15 A'   16 A'                 
 -0.847  -0.803  -0.777  -0.752  -0.728  -0.708  -0.705  -0.692
 17 A'   18 A'   19 A'    1 A"   20 A'    2 A"   21 A'   22 A'                 
 -0.614  -0.593  -0.553  -0.544  -0.501  -0.119
  3 A"   23 A'    4 A"   24 A'    5 A"   25 A'                                 
 -- Virtual --                   
 -0.007   0.003   0.009   0.012   0.023   0.024   0.028   0.031
  6 A"   26 A'   27 A'    7 A"   28 A'   29 A'   30 A'    8 A"                 
  0.032   0.038   0.042   0.045   0.045   0.049   0.051   0.054
  9 A"   31 A'   32 A'   33 A'   34 A'   35 A'   10 A"   36 A'                 
  0.060   0.061   0.066   0.067   0.072   0.073   0.076   0.079
 11 A"   37 A'   38 A'   39 A'   12 A"   40 A'   13 A"   41 A'                 
  0.089   0.100   0.104   0.105   0.106   0.112   0.117   0.124
 14 A"   42 A'   43 A'   44 A'   15 A"   45 A'   46 A'   47 A'                 
  0.132   0.137   0.138   0.141   0.146   0.158   0.167   0.170
 48 A'   49 A'   50 A'   51 A'   16 A"   17 A"   52 A'   53 A'                 
  0.172   0.192   0.195   0.201   0.211   0.215   0.221   0.226
 18 A"   54 A'   55 A'   56 A'   19 A"   57 A'   20 A"   58 A'                 
  0.233   0.240   0.241   0.247   0.248   0.261   0.273   0.292
 59 A'   60 A'   61 A'   62 A'   21 A"   63 A'   64 A'   65 A'                 
  0.295   0.300   0.303   0.336   0.341   0.351   0.358   0.369
 22 A"   66 A'   67 A'   68 A'   23 A"   69 A'   70 A'   71 A'                 
  0.380   0.382   0.393   0.400   0.404   0.418   0.431   0.436
 72 A'   24 A"   73 A'   74 A'   75 A'   76 A'   77 A'   78 A'                 
  0.446   0.464   0.499   0.508   0.557   0.565   0.576   0.633
 79 A'   80 A'   81 A'   82 A'   83 A'   84 A'   85 A'   86 A'                 
  0.664   0.672   0.693   0.711   0.718   0.728   0.742   0.769
 25 A"   87 A'   88 A'   26 A"   89 A'   27 A"   90 A'   28 A"                 
  0.812   0.824   0.860   0.887   0.895   0.903   0.924   0.949
 91 A'   92 A'   93 A'   94 A'   95 A'   96 A'   97 A'   98 A'                 
  0.952   0.965   0.998   1.021   1.028   1.034   1.086   1.110
 99 A'   29 A"  100 A'  101 A'   30 A"  102 A'  103 A'   31 A"                 
  1.161   1.184   1.204   1.218   1.258   1.298   1.298   1.339
 32 A"  104 A'  105 A'  106 A'   33 A"  107 A'   34 A"   35 A"                 
  1.344   1.345   1.380   1.391   1.426   1.448   1.474   1.478
 36 A"  108 A'   37 A"  109 A'  110 A'   38 A"  111 A'  112 A'                 
  1.532   1.628   1.668   1.710   1.723   1.800   1.804   1.816
113 A'  114 A'  115 A'   39 A"  116 A'   40 A"  117 A'  118 A'                 
  1.847   1.853   1.890   1.922   1.939   1.967   2.037   2.053
119 A'   41 A"  120 A'  121 A'   42 A"  122 A'  123 A'  124 A'                 
  2.099   2.110   2.134   2.189   2.189   2.209   2.271   2.396
 43 A"  125 A'  126 A'  127 A'   44 A"  128 A'  129 A'  130 A'                 
  2.455   2.498   2.559   2.574   2.626   2.665   2.713   2.737
 45 A"  131 A'  132 A'   46 A"   47 A"  133 A'   48 A"  134 A'                 
  2.840   2.871   2.906   2.952   2.967   2.988   3.038   3.071
135 A'  136 A'  137 A'  138 A'   49 A"  139 A'  140 A'   50 A"                 
  3.100   3.103   3.122   3.159   3.191   3.200   3.224   3.225
141 A'   51 A"   52 A"  142 A'  143 A'   53 A"  144 A'   54 A"                 
  3.266   3.417   3.463   3.586   3.609   3.667   3.676   3.733
145 A'  146 A'  147 A'   55 A"  148 A'  149 A'   56 A"  150 A'                 
  3.791   3.809   3.893   3.933   4.038   4.130   4.188   4.284
151 A'  152 A'  153 A'  154 A'  155 A'  156 A'   57 A"   58 A"                 
  4.309   4.371   4.493   4.913   5.024   5.176   5.320   5.427
157 A'  158 A'  159 A'  160 A'  161 A'  162 A'  163 A'  164 A'                 
  5.456   5.553   5.570   5.625   5.642   5.707   5.768   6.302
 59 A"   60 A"  165 A'  166 A'  167 A'  168 A'  169 A'  170 A'                 
  6.366   7.521   7.632   9.702   9.820  20.530  20.598  20.618
171 A'  172 A'  173 A'  174 A'  175 A'  176 A'  177 A'  178 A'                 
 20.738  30.043  30.149  40.726  40.826  80.091  80.136  80.160
179 A'  180 A'  181 A'  182 A'  183 A'  184 A'  185 A'  186 A'                 
 80.269 116.170 116.266 159.084 159.170 321.922 321.954 321.980
187 A'  188 A'  189 A'  190 A'  191 A'  192 A'  193 A'  194 A'                 
322.080 460.277 460.363 631.791 631.8681431.4801431.5051431.530
195 A'  196 A'  197 A'  198 A'  199 A'  200 A'  201 A'  202 A'                 
*******2012.7572012.8362759.1922759.2648749.7048749.7288749.748
203 A'  204 A'  205 A'  206 A'  207 A'  208 A'  209 A'  210 A'                 
***************************************
211 A'  212 A'  213 A'  214 A'  215 A'                                         

 Beta MOs, Unrestricted
 -- Occupied --                  
-20.666 -20.619 -15.756 -15.702 -11.499 -11.469 -11.462 -11.381
  1 A'    2 A'    3 A'    4 A'    5 A'    6 A'    7 A'    8 A'                 
 -1.499  -1.462  -1.377  -1.316  -1.136  -1.025  -0.967  -0.876
  9 A'   10 A'   11 A'   12 A'   13 A'   14 A'   15 A'   16 A'                 
 -0.841  -0.798  -0.756  -0.719  -0.719  -0.695  -0.682  -0.608
 17 A'   18 A'   19 A'   20 A'    1 A"   21 A'   22 A'    2 A"                 
 -0.568  -0.561  -0.534  -0.463
 23 A'    3 A"   24 A'    4 A"                                                 
 -- Virtual --                   
 -0.100   0.003   0.013   0.015   0.019   0.024   0.028   0.031
  5 A"   25 A'   26 A'    6 A"   27 A'    7 A"   28 A'   29 A'                 
  0.033   0.034   0.038   0.045   0.045   0.049   0.051   0.052
  8 A"   30 A'    9 A"   31 A'   32 A'   33 A'   34 A'   35 A'                 
  0.056   0.063   0.063   0.067   0.068   0.075   0.080   0.082
 10 A"   36 A'   11 A"   37 A'   38 A'   39 A'   12 A"   40 A'                 
  0.086   0.087   0.099   0.103   0.109   0.110   0.115   0.119
 13 A"   41 A'   14 A"   42 A'   43 A'   44 A'   45 A'   46 A'                 
  0.122   0.131   0.137   0.141   0.142   0.152   0.158   0.172
 15 A"   47 A'   48 A'   49 A'   50 A'   51 A'   16 A"   52 A'                 
  0.176   0.179   0.181   0.198   0.206   0.209   0.214   0.219
 17 A"   18 A"   53 A'   54 A'   55 A'   56 A'   19 A"   57 A'                 
  0.228   0.236   0.237   0.243   0.246   0.253   0.255   0.264
 58 A'   20 A"   59 A'   60 A'   61 A'   62 A'   21 A"   63 A'                 
  0.281   0.296   0.306   0.307   0.311   0.337   0.352   0.362
 64 A'   65 A'   66 A'   22 A"   67 A'   68 A'   69 A'   70 A'                 
  0.374   0.375   0.385   0.389   0.396   0.402   0.407   0.422
 23 A"   71 A'   72 A'   24 A"   73 A'   74 A'   75 A'   76 A'                 
  0.436   0.437   0.449   0.466   0.502   0.512   0.561   0.569
 77 A'   78 A'   79 A'   80 A'   81 A'   82 A'   83 A'   84 A'                 
  0.585   0.634   0.677   0.687   0.696   0.702   0.723   0.743
 85 A'   86 A'   87 A'   25 A"   88 A'   26 A"   89 A'   27 A"                 
  0.748   0.757   0.817   0.828   0.867   0.890   0.899   0.906
 90 A'   28 A"   91 A'   92 A'   93 A'   94 A'   95 A'   96 A'                 
  0.927   0.951   0.959   0.993   1.006   1.023   1.034   1.035
 97 A'   98 A'   99 A'   29 A"  100 A'  101 A'  102 A'   30 A"                 
  1.089   1.130   1.175   1.185   1.210   1.220   1.293   1.301
103 A'   31 A"   32 A"  104 A'  105 A'  106 A'   33 A"  107 A'                 
  1.332   1.347   1.352   1.358   1.392   1.397   1.435   1.443
 34 A"   35 A"  108 A'   36 A"   37 A"  109 A'  110 A'   38 A"                 
  1.478   1.484   1.536   1.633   1.674   1.715   1.725   1.802
111 A'  112 A'  113 A'  114 A'  115 A'   39 A"  116 A'   40 A"                 
  1.805   1.827   1.848   1.850   1.893   1.928   1.944   1.966
117 A'  118 A'  119 A'   41 A"  120 A'  121 A'   42 A"  122 A'                 
  2.037   2.053   2.110   2.118   2.140   2.200   2.207   2.211
123 A'  124 A'  125 A'   43 A"  126 A'  127 A'   44 A"  128 A'                 
  2.269   2.400   2.464   2.502   2.563   2.580   2.639   2.669
129 A'  130 A'   45 A"  131 A'  132 A'   46 A"   47 A"  133 A'                 
  2.726   2.739   2.844   2.882   2.909   2.962   2.992   2.993
 48 A"  134 A'  135 A'  136 A'  137 A'  138 A'   49 A"  139 A'                 
  3.042   3.060   3.105   3.106   3.166   3.173   3.215   3.225
140 A'   50 A"   51 A"  141 A'   52 A"  142 A'  143 A'   53 A"                 
  3.247   3.249   3.273   3.422   3.468   3.616   3.635   3.672
144 A'   54 A"  145 A'  146 A'  147 A'  148 A'   55 A"  149 A'                 
  3.683   3.738   3.793   3.813   3.895   3.937   4.041   4.140
 56 A"  150 A'  151 A'  152 A'  153 A'  154 A'  155 A'  156 A'                 
  4.226   4.283   4.318   4.375   4.500   4.915   5.028   5.180
 57 A"   58 A"  157 A'  158 A'  159 A'  160 A'  161 A'  162 A'                 
  5.326   5.426   5.540   5.565   5.572   5.627   5.656   5.713
163 A'  164 A'   59 A"   60 A"  165 A'  166 A'  167 A'  168 A'                 
  5.769   6.313   6.368   7.536   7.632   9.729   9.827  20.532
169 A'  170 A'  171 A'  172 A'  173 A'  174 A'  175 A'  176 A'                 
 20.598  20.614  20.740  30.052  30.149  40.740  40.829  80.091
177 A'  178 A'  179 A'  180 A'  181 A'  182 A'  183 A'  184 A'                 
 80.136  80.159  80.270 116.174 116.266 159.088 159.171 321.921
185 A'  186 A'  187 A'  188 A'  189 A'  190 A'  191 A'  192 A'                 
321.953 321.979 322.080 460.278 460.363 631.792 631.8681431.480
193 A'  194 A'  195 A'  196 A'  197 A'  198 A'  199 A'  200 A'                 
*******1431.5301431.6232012.7572012.8362759.1922759.2648749.704
201 A'  202 A'  203 A'  204 A'  205 A'  206 A'  207 A'  208 A'                 
*******8749.7488749.832********************************
209 A'  210 A'  211 A'  212 A'  213 A'  214 A'  215 A'                         
 --------------------------------------------------------------

          Ground-State Mulliken Net Atomic Charges

     Atom                 Charge (a.u.)    Spin (a.u.)
  --------------------------------------------------------
      1 C                     1.916241      -2.238838
      2 H                     0.085113       0.337409
      3 H                    -0.095100       0.434129
      4 H                     0.397008       0.018538
      5 C                    -0.366043       0.397913
      6 O                     0.090496       0.028983
      7 C                    -0.708066      -0.218712
      8 O                     0.164028       0.552795
      9 N                    -0.501670      -0.005753
     10 N                    -0.226084       0.485553
     11 C                    -1.035230       2.214424
     12 H                     0.279308      -0.006441
  --------------------------------------------------------
  Sum of atomic charges =    -0.000000
  Sum of spin   charges =     2.000000

 -----------------------------------------------------------------
                    Cartesian Multipole Moments
 -----------------------------------------------------------------
    Charge (ESU x 10^10)
                 0.0000
    Dipole Moment (Debye)
         X       5.2808      Y       5.3362      Z       0.0000
       Tot       7.5074
    Quadrupole Moments (Debye-Ang)
        XX     -71.4310     XY     -12.2004     YY     -79.8103
        XZ      -0.0000     YZ      -0.0000     ZZ     -61.7228
    Octopole Moments (Debye-Ang^2)
       XXX      60.8177    XXY      37.6120    XYY      58.2630
       YYY     215.4934    XXZ       0.0000    XYZ       0.0000
       YYZ       0.0000    XZZ      18.2957    YZZ      50.1272
       ZZZ       0.0000
    Hexadecapole Moments (Debye-Ang^3)
      XXXX    -999.7487   XXXY    -157.5865   XXYY    -424.2853
      XYYY    -227.2654   YYYY   -1452.9758   XXXZ      -0.0000
      XXYZ      -0.0000   XYYZ      -0.0000   YYYZ      -0.0000
      XXZZ    -197.5662   XYZZ     -46.9972   YYZZ    -263.4926
      XZZZ      -0.0000   YZZZ      -0.0000   ZZZZ    -256.9694
 -----------------------------------------------------------------
Archival summary:
1\1\n-62-24-2\SP\ProcedureUnspecified\BasisUnspecified\2244(3)\malop\ThuJun1301:44:482019ThuJun1301:44:482019\0\\#,ProcedureUnspecified,BasisUnspecified,\\0,3\N\H,1,1.01412\C,1,1.35946,2,118.093\O,3,1.22751,1,127.463,2,-0,0\N,3,1.43032,1,114.847,2,-180,0\H,5,1.01942,3,111.61,1,180,0\C,5,1.35712,3,127.429,1,-0,0\H,7,1.08865,5,118.617,3,-180,0\C,1,1.4495,2,116.902,3,-180,0\O,9,1.2531,1,116.011,2,0,0\C,9,1.41986,1,116.235,2,-180,0\H,11,1.0899,9,118.731,1,180,0\\HF=-412.374727\\@

 Total job time:  26058.52s(wall), 24583.68s(cpu) 
 Thu Jun 13 01:44:48 2019

======= MOLDEN-FORMATTED INPUT FILE FOLLOWS =======
[Molden Format]
[Atoms] (Angs)
  C      1    6     -0.13173890     -1.79208980     -0.00000000
  H      2    1     -2.14962000     -1.30978739     -0.00000000
  H      3    1     -0.31599560     -2.86503115     -0.00000000
  H      4    1      0.14407746      2.04280963     -0.00000000
  C      5    6     -1.17258876      0.48030861     -0.00000000
  O      6    8     -2.25008207      1.06833796     -0.00000000
  C      7    6      1.31158357      0.28308717      0.00000000
  O      8    8      2.36361668      0.96389345      0.00000000
  N      9    7      0.07017030      1.03138997     -0.00000000
  N     10    7     -1.19586868     -0.94982644     -0.00000000
  C     11    6      1.19165158     -1.13169473      0.00000000
  H     12    1      2.09970506     -1.73445456      0.00000000

======= END OF MOLDEN-FORMATTED INPUT FILE =======


        *************************************************************
        *                                                           *
        *  Thank you very much for using Q-Chem.  Have a nice day.  *
        *                                                           *
        *************************************************************


