[Molden Format]
[Atoms] (Angs)
  C      1    6     -0.00714236     -1.70213747     -0.00000000
  H      2    1     -2.06882847     -1.44022412      0.00000000
  H      3    1     -0.12337987     -2.77567521      0.00000000
  H      4    1      0.04651892      1.98813947     -0.00000000
  C      5    6     -1.21953563      0.40211669      0.00000000
  O      6    8     -2.25921553      1.03043814      0.00000000
  C      7    6      1.28797806      0.34644937     -0.00000000
  O      8    8      2.31273661      1.00537216     -0.00000000
  N      9    7      0.03446295      0.97739857     -0.00000000
  N     10    7     -1.17287765     -0.98229824      0.00000000
  C     11    6      1.20107039     -1.10433419     -0.00000000
  H     12    1      2.11220096     -1.67699125     -0.00000000
[GTO]
1    0
S    1    1.000000
   4.56324000E+03    1.96665000E-03 
S    1    1.000000
   6.82024000E+02    1.52306000E-02 
S    1    1.000000
   1.54973000E+02    7.61269000E-02 
S    1    1.000000
   4.44553000E+01    2.60801000E-01 
S    1    1.000000
   1.30290000E+01    6.16462000E-01 
S    1    1.000000
   1.82773000E+00    2.21006000E-01 
SP   3    1.000000
   2.09642000E+01    1.14660000E-01   4.02487000E-02 
   4.80331000E+00    9.19999000E-01   2.37594000E-01 
   1.45933000E+00   -3.03068000E-03   8.15854000E-01 
SP   1    1.000000
   4.83456000E-01    1.00000000E+00   1.00000000E+00 
SP   1    1.000000
   1.45585000E-01    1.00000000E+00   1.00000000E+00 
SP   1    1.000000
   4.38000000E-02    1.00000000E+00   1.00000000E+00 
SP   1    1.000000
   1.31927711E-02    1.00000000E+00   1.00000000E+00 
D    1    1.000000
   6.26000000E-01    1.00000000E+00 

2    0
S    3    1.000000
   3.38650000E+01    2.54938000E-02 
   5.09479000E+00    1.90373000E-01 
   1.15879000E+00    8.52161000E-01 
S    1    1.000000
   3.25840000E-01    1.00000000E+00 
S    1    1.000000
   1.02741000E-01    1.00000000E+00 
S    1    1.000000
   3.60000000E-02    1.00000000E+00 
P    1    1.000000
   7.50000000E-01    1.00000000E+00 

3    0
S    3    1.000000
   3.38650000E+01    2.54938000E-02 
   5.09479000E+00    1.90373000E-01 
   1.15879000E+00    8.52161000E-01 
S    1    1.000000
   3.25840000E-01    1.00000000E+00 
S    1    1.000000
   1.02741000E-01    1.00000000E+00 
S    1    1.000000
   3.60000000E-02    1.00000000E+00 
P    1    1.000000
   7.50000000E-01    1.00000000E+00 

4    0
S    3    1.000000
   3.38650000E+01    2.54938000E-02 
   5.09479000E+00    1.90373000E-01 
   1.15879000E+00    8.52161000E-01 
S    1    1.000000
   3.25840000E-01    1.00000000E+00 
S    1    1.000000
   1.02741000E-01    1.00000000E+00 
S    1    1.000000
   3.60000000E-02    1.00000000E+00 
P    1    1.000000
   7.50000000E-01    1.00000000E+00 

5    0
S    1    1.000000
   4.56324000E+03    1.96665000E-03 
S    1    1.000000
   6.82024000E+02    1.52306000E-02 
S    1    1.000000
   1.54973000E+02    7.61269000E-02 
S    1    1.000000
   4.44553000E+01    2.60801000E-01 
S    1    1.000000
   1.30290000E+01    6.16462000E-01 
S    1    1.000000
   1.82773000E+00    2.21006000E-01 
SP   3    1.000000
   2.09642000E+01    1.14660000E-01   4.02487000E-02 
   4.80331000E+00    9.19999000E-01   2.37594000E-01 
   1.45933000E+00   -3.03068000E-03   8.15854000E-01 
SP   1    1.000000
   4.83456000E-01    1.00000000E+00   1.00000000E+00 
SP   1    1.000000
   1.45585000E-01    1.00000000E+00   1.00000000E+00 
SP   1    1.000000
   4.38000000E-02    1.00000000E+00   1.00000000E+00 
SP   1    1.000000
   1.31927711E-02    1.00000000E+00   1.00000000E+00 
D    1    1.000000
   6.26000000E-01    1.00000000E+00 

6    0
S    1    1.000000
   8.58850000E+03    1.89515000E-03 
S    1    1.000000
   1.29723000E+03    1.43859000E-02 
S    1    1.000000
   2.99296000E+02    7.07320000E-02 
S    1    1.000000
   8.73771000E+01    2.40001000E-01 
S    1    1.000000
   2.56789000E+01    5.94797000E-01 
S    1    1.000000
   3.74004000E+00    2.80802000E-01 
SP   3    1.000000
   4.21175000E+01    1.13889000E-01   3.65114000E-02 
   9.62837000E+00    9.20811000E-01   2.37153000E-01 
   2.85332000E+00   -3.27447000E-03   8.19702000E-01 
SP   1    1.000000
   9.05661000E-01    1.00000000E+00   1.00000000E+00 
SP   1    1.000000
   2.55611000E-01    1.00000000E+00   1.00000000E+00 
SP   1    1.000000
   8.45000000E-02    1.00000000E+00   1.00000000E+00 
SP   1    1.000000
   2.54518072E-02    1.00000000E+00   1.00000000E+00 
D    1    1.000000
   1.29200000E+00    1.00000000E+00 

7    0
S    1    1.000000
   4.56324000E+03    1.96665000E-03 
S    1    1.000000
   6.82024000E+02    1.52306000E-02 
S    1    1.000000
   1.54973000E+02    7.61269000E-02 
S    1    1.000000
   4.44553000E+01    2.60801000E-01 
S    1    1.000000
   1.30290000E+01    6.16462000E-01 
S    1    1.000000
   1.82773000E+00    2.21006000E-01 
SP   3    1.000000
   2.09642000E+01    1.14660000E-01   4.02487000E-02 
   4.80331000E+00    9.19999000E-01   2.37594000E-01 
   1.45933000E+00   -3.03068000E-03   8.15854000E-01 
SP   1    1.000000
   4.83456000E-01    1.00000000E+00   1.00000000E+00 
SP   1    1.000000
   1.45585000E-01    1.00000000E+00   1.00000000E+00 
SP   1    1.000000
   4.38000000E-02    1.00000000E+00   1.00000000E+00 
SP   1    1.000000
   1.31927711E-02    1.00000000E+00   1.00000000E+00 
D    1    1.000000
   6.26000000E-01    1.00000000E+00 

8    0
S    1    1.000000
   8.58850000E+03    1.89515000E-03 
S    1    1.000000
   1.29723000E+03    1.43859000E-02 
S    1    1.000000
   2.99296000E+02    7.07320000E-02 
S    1    1.000000
   8.73771000E+01    2.40001000E-01 
S    1    1.000000
   2.56789000E+01    5.94797000E-01 
S    1    1.000000
   3.74004000E+00    2.80802000E-01 
SP   3    1.000000
   4.21175000E+01    1.13889000E-01   3.65114000E-02 
   9.62837000E+00    9.20811000E-01   2.37153000E-01 
   2.85332000E+00   -3.27447000E-03   8.19702000E-01 
SP   1    1.000000
   9.05661000E-01    1.00000000E+00   1.00000000E+00 
SP   1    1.000000
   2.55611000E-01    1.00000000E+00   1.00000000E+00 
SP   1    1.000000
   8.45000000E-02    1.00000000E+00   1.00000000E+00 
SP   1    1.000000
   2.54518072E-02    1.00000000E+00   1.00000000E+00 
D    1    1.000000
   1.29200000E+00    1.00000000E+00 

9    0
S    1    1.000000
   6.29348000E+03    1.96979000E-03 
S    1    1.000000
   9.49044000E+02    1.49613000E-02 
S    1    1.000000
   2.18776000E+02    7.35006000E-02 
S    1    1.000000
   6.36916000E+01    2.48937000E-01 
S    1    1.000000
   1.88282000E+01    6.02460000E-01 
S    1    1.000000
   2.72023000E+00    2.56202000E-01 
SP   3    1.000000
   3.06331000E+01    1.11906000E-01   3.83119000E-02 
   7.02614000E+00    9.21666000E-01   2.37403000E-01 
   2.11205000E+00   -2.56919000E-03   8.17592000E-01 
SP   1    1.000000
   6.84009000E-01    1.00000000E+00   1.00000000E+00 
SP   1    1.000000
   2.00878000E-01    1.00000000E+00   1.00000000E+00 
SP   1    1.000000
   6.39000000E-02    1.00000000E+00   1.00000000E+00 
SP   1    1.000000
   1.92469880E-02    1.00000000E+00   1.00000000E+00 
D    1    1.000000
   9.13000000E-01    1.00000000E+00 

10    0
S    1    1.000000
   6.29348000E+03    1.96979000E-03 
S    1    1.000000
   9.49044000E+02    1.49613000E-02 
S    1    1.000000
   2.18776000E+02    7.35006000E-02 
S    1    1.000000
   6.36916000E+01    2.48937000E-01 
S    1    1.000000
   1.88282000E+01    6.02460000E-01 
S    1    1.000000
   2.72023000E+00    2.56202000E-01 
SP   3    1.000000
   3.06331000E+01    1.11906000E-01   3.83119000E-02 
   7.02614000E+00    9.21666000E-01   2.37403000E-01 
   2.11205000E+00   -2.56919000E-03   8.17592000E-01 
SP   1    1.000000
   6.84009000E-01    1.00000000E+00   1.00000000E+00 
SP   1    1.000000
   2.00878000E-01    1.00000000E+00   1.00000000E+00 
SP   1    1.000000
   6.39000000E-02    1.00000000E+00   1.00000000E+00 
SP   1    1.000000
   1.92469880E-02    1.00000000E+00   1.00000000E+00 
D    1    1.000000
   9.13000000E-01    1.00000000E+00 

11    0
S    1    1.000000
   4.56324000E+03    1.96665000E-03 
S    1    1.000000
   6.82024000E+02    1.52306000E-02 
S    1    1.000000
   1.54973000E+02    7.61269000E-02 
S    1    1.000000
   4.44553000E+01    2.60801000E-01 
S    1    1.000000
   1.30290000E+01    6.16462000E-01 
S    1    1.000000
   1.82773000E+00    2.21006000E-01 
SP   3    1.000000
   2.09642000E+01    1.14660000E-01   4.02487000E-02 
   4.80331000E+00    9.19999000E-01   2.37594000E-01 
   1.45933000E+00   -3.03068000E-03   8.15854000E-01 
SP   1    1.000000
   4.83456000E-01    1.00000000E+00   1.00000000E+00 
SP   1    1.000000
   1.45585000E-01    1.00000000E+00   1.00000000E+00 
SP   1    1.000000
   4.38000000E-02    1.00000000E+00   1.00000000E+00 
SP   1    1.000000
   1.31927711E-02    1.00000000E+00   1.00000000E+00 
D    1    1.000000
   6.26000000E-01    1.00000000E+00 

12    0
S    3    1.000000
   3.38650000E+01    2.54938000E-02 
   5.09479000E+00    1.90373000E-01 
   1.15879000E+00    8.52161000E-01 
S    1    1.000000
   3.25840000E-01    1.00000000E+00 
S    1    1.000000
   1.02741000E-01    1.00000000E+00 
S    1    1.000000
   3.60000000E-02    1.00000000E+00 
P    1    1.000000
   7.50000000E-01    1.00000000E+00 

[MO]
Sym=X
Ene=0.253212
Spin=Alpha
Occup=1
1    8.12271044e-10
2    -1.72095973e-09
3    5.01305243e-08
4    -5.91405617e-08
5    1.66975004e-06
6    6.65760546e-06
7    -3.33529349e-06
8    -1.62065846e-06
9    6.18676321e-07
10    -7.76206696e-16
11    -1.94624686e-05
12    1.66728061e-05
13    -5.43099831e-06
14    -2.5341705e-15
15    0.00014959897
16    2.66044416e-05
17    0.000148554093
18    6.01631677e-16
19    0.00288026532
20    -5.71793288e-06
21    0.00121481904
22    -4.83951464e-14
23    0.000314746742
24    0.000236359469
25    -0.000201695706
26    -9.28130036e-15
27    7.60571316e-06
28    1.04510289e-16
29    -2.71677641e-06
30    4.37348383e-16
31    4.78592242e-06
32    -6.87869148e-06
33    1.14992878e-05
34    2.50974261e-05
35    -9.54383867e-05
36    -3.36469177e-06
37    8.15519622e-06
38    -1.05955372e-15
39    -1.26329681e-06
40    1.96022503e-05
41    0.00011172886
42    0.000764867444
43    1.12381279e-06
44    3.57685326e-06
45    -2.58330546e-16
46    -5.55444134e-06
47    -9.54589799e-07
48    9.75626778e-05
49    -0.000125623682
50    -8.55049707e-06
51    -4.54031898e-07
52    3.14323784e-16
53    8.93240778e-09
54    1.29003261e-07
55    2.76501402e-07
56    3.22625717e-06
57    7.12164799e-06
58    0.000120338449
59    1.44568109e-05
60    3.51003983e-05
61    -2.16322691e-05
62    -2.461821e-15
63    -0.000446177701
64    0.000453435489
65    -0.000272766918
66    9.88525142e-16
67    0.000890643644
68    -0.000469198714
69    0.000285802155
70    -6.32559167e-15
71    0.00214933383
72    -0.00270406056
73    0.00173887935
74    -4.94876197e-14
75    -0.00139309327
76    -0.00010759124
77    -0.000231945097
78    -5.73571034e-15
79    0.000243927754
80    6.14307236e-16
81    8.00361817e-05
82    1.09900937e-15
83    -0.000127610149
84    -0.00104384938
85    -0.00794069073
86    -0.0389355506
87    -0.132509621
88    -0.327964752
89    -0.155520522
90    -0.47128795
91    -0.00159309982
92    0.000975079246
93    -9.9064568e-16
94    -0.0049392776
95    0.000742635124
96    -0.00045285564
97    -7.10748059e-16
98    0.000586110746
99    -0.000409127035
100    0.000250298219
101    -5.11025363e-15
102    -0.00323871432
103    -0.000235863124
104    0.00014223958
105    5.64709805e-15
106    -0.00754988545
107    -0.00139641761
108    0.000692599064
109    -4.62780182e-15
110    -8.60939128e-05
111    7.73341856e-16
112    7.52541042e-05
113    -1.85418832e-16
114    4.74859096e-05
115    8.10628585e-10
116    -1.92363443e-09
117    5.05199157e-08
118    -6.45553482e-08
119    1.66997392e-06
120    6.49374501e-06
121    -3.31513041e-06
122    -2.03956023e-06
123    -5.55126745e-07
124    1.890483e-15
125    -1.66051343e-05
126    1.11627898e-05
127    -2.68724766e-06
128    -1.00855676e-15
129    -6.06931461e-05
130    -0.000236863402
131    -0.000157457711
132    9.57302382e-15
133    0.00186132185
134    -0.00111810798
135    -0.000398694584
136    -6.86444982e-14
137    0.000408229675
138    -0.000173695506
139    0.000252653549
140    -4.49484105e-14
141    -3.9042347e-06
142    9.11517943e-16
143    5.3559388e-07
144    1.14116433e-15
145    -5.59798989e-06
146    -4.02978265e-07
147    -3.0698543e-06
148    -1.50211437e-05
149    -5.12407624e-05
150    -0.000125759314
151    -5.63809354e-05
152    -0.000184348866
153    -1.06934459e-06
154    5.53981029e-07
155    7.18514722e-16
156    -1.34082986e-05
157    5.26880604e-06
158    1.12815159e-07
159    2.90623424e-15
160    9.28897452e-05
161    -5.59059481e-05
162    -2.40345362e-05
163    -1.10900354e-15
164    0.000454360586
165    -4.22243835e-05
166    -7.21157831e-05
167    9.36307818e-15
168    0.00238087753
169    -0.00038272002
170    -7.92470688e-05
171    1.52380285e-14
172    1.64681362e-06
173    1.66464613e-16
174    -1.22622248e-06
175    5.22310563e-17
176    4.62191493e-07
177    1.3137868e-09
178    -2.5085546e-08
179    1.26592681e-07
180    -5.51848304e-07
181    6.80821938e-06
182    2.76288821e-05
183    -1.88777844e-05
184    -1.67294247e-05
185    1.49235124e-06
186    -1.76928027e-15
187    -3.92042701e-05
188    5.50301055e-05
189    5.59782505e-07
190    5.76630567e-15
191    -2.09855183e-05
192    -1.33506258e-05
193    1.90067702e-05
194    -1.40753906e-14
195    -0.000191270597
196    3.87025568e-05
197    -0.000213168823
198    4.1464683e-14
199    0.00142483376
200    -0.00233425902
201    7.26417244e-05
202    4.4171019e-14
203    -3.89608262e-06
204    3.69521109e-16
205    4.50586459e-06
206    1.22052052e-15
207    -3.15389626e-05
208    1.31344586e-09
209    -2.76156756e-08
210    1.32272108e-07
211    -6.03521794e-07
212    7.26546587e-06
213    2.95969941e-05
214    -2.02203943e-05
215    -8.69999046e-06
216    1.47642312e-05
217    -3.01572137e-15
218    -4.43350683e-05
219    2.37678123e-05
220    -5.1287841e-05
221    1.79840146e-15
222    7.9710821e-06
223    -7.69459893e-06
224    1.93143921e-05
225    -1.58955134e-14
226    -0.000194059913
227    5.90051291e-05
228    1.38352905e-05
229    3.69232257e-14
230    0.0019212788
231    -0.000379559582
232    0.000770617202
233    1.41706819e-14
234    2.04208628e-05
235    -2.0926033e-16
236    4.10635783e-06
237    -2.55246021e-17
238    2.38395792e-05
239    -3.57918754e-11
240    -2.84866602e-10
241    -1.41995368e-09
242    -1.88345298e-09
243    6.70311968e-08
244    1.08487068e-06
245    -2.94177139e-07
246    -1.28317998e-06
247    5.60431131e-08
248    -4.49726266e-16
249    5.93693028e-08
250    1.34988617e-05
251    -1.08132332e-06
252    -5.41213593e-16
253    -0.000236776105
254    0.000144786343
255    -7.93260485e-05
256    -5.27922024e-15
257    -0.0030733149
258    0.000722834955
259    -0.000413153255
260    5.28758272e-14
261    0.000115063629
262    0.000110561093
263    0.000282268118
264    2.88075253e-14
265    -5.79323944e-06
266    3.0902013e-16
267    -1.28831517e-06
268    6.45565729e-16
269    -2.9021121e-07
270    -5.96231937e-07
271    -2.44345285e-05
272    -5.53089062e-05
273    -6.94774854e-05
274    3.63202982e-06
275    -2.51887853e-06
276    1.1888079e-16
[5D]