[Molden Format]
[Atoms] (Angs)
  C      1    6     -0.00714236     -1.70213747     -0.00000000
  H      2    1     -2.06882847     -1.44022412      0.00000000
  H      3    1     -0.12337987     -2.77567521      0.00000000
  H      4    1      0.04651892      1.98813947     -0.00000000
  C      5    6     -1.21953563      0.40211669      0.00000000
  O      6    8     -2.25921553      1.03043814      0.00000000
  C      7    6      1.28797806      0.34644937     -0.00000000
  O      8    8      2.31273661      1.00537216     -0.00000000
  N      9    7      0.03446295      0.97739857     -0.00000000
  N     10    7     -1.17287765     -0.98229824      0.00000000
  C     11    6      1.20107039     -1.10433419     -0.00000000
  H     12    1      2.11220096     -1.67699125     -0.00000000
[GTO]
1    0
S    1    1.000000
   4.56324000E+03    1.96665000E-03 
S    1    1.000000
   6.82024000E+02    1.52306000E-02 
S    1    1.000000
   1.54973000E+02    7.61269000E-02 
S    1    1.000000
   4.44553000E+01    2.60801000E-01 
S    1    1.000000
   1.30290000E+01    6.16462000E-01 
S    1    1.000000
   1.82773000E+00    2.21006000E-01 
SP   3    1.000000
   2.09642000E+01    1.14660000E-01   4.02487000E-02 
   4.80331000E+00    9.19999000E-01   2.37594000E-01 
   1.45933000E+00   -3.03068000E-03   8.15854000E-01 
SP   1    1.000000
   4.83456000E-01    1.00000000E+00   1.00000000E+00 
SP   1    1.000000
   1.45585000E-01    1.00000000E+00   1.00000000E+00 
SP   1    1.000000
   4.38000000E-02    1.00000000E+00   1.00000000E+00 
SP   1    1.000000
   1.31927711E-02    1.00000000E+00   1.00000000E+00 
D    1    1.000000
   6.26000000E-01    1.00000000E+00 

2    0
S    3    1.000000
   3.38650000E+01    2.54938000E-02 
   5.09479000E+00    1.90373000E-01 
   1.15879000E+00    8.52161000E-01 
S    1    1.000000
   3.25840000E-01    1.00000000E+00 
S    1    1.000000
   1.02741000E-01    1.00000000E+00 
S    1    1.000000
   3.60000000E-02    1.00000000E+00 
P    1    1.000000
   7.50000000E-01    1.00000000E+00 

3    0
S    3    1.000000
   3.38650000E+01    2.54938000E-02 
   5.09479000E+00    1.90373000E-01 
   1.15879000E+00    8.52161000E-01 
S    1    1.000000
   3.25840000E-01    1.00000000E+00 
S    1    1.000000
   1.02741000E-01    1.00000000E+00 
S    1    1.000000
   3.60000000E-02    1.00000000E+00 
P    1    1.000000
   7.50000000E-01    1.00000000E+00 

4    0
S    3    1.000000
   3.38650000E+01    2.54938000E-02 
   5.09479000E+00    1.90373000E-01 
   1.15879000E+00    8.52161000E-01 
S    1    1.000000
   3.25840000E-01    1.00000000E+00 
S    1    1.000000
   1.02741000E-01    1.00000000E+00 
S    1    1.000000
   3.60000000E-02    1.00000000E+00 
P    1    1.000000
   7.50000000E-01    1.00000000E+00 

5    0
S    1    1.000000
   4.56324000E+03    1.96665000E-03 
S    1    1.000000
   6.82024000E+02    1.52306000E-02 
S    1    1.000000
   1.54973000E+02    7.61269000E-02 
S    1    1.000000
   4.44553000E+01    2.60801000E-01 
S    1    1.000000
   1.30290000E+01    6.16462000E-01 
S    1    1.000000
   1.82773000E+00    2.21006000E-01 
SP   3    1.000000
   2.09642000E+01    1.14660000E-01   4.02487000E-02 
   4.80331000E+00    9.19999000E-01   2.37594000E-01 
   1.45933000E+00   -3.03068000E-03   8.15854000E-01 
SP   1    1.000000
   4.83456000E-01    1.00000000E+00   1.00000000E+00 
SP   1    1.000000
   1.45585000E-01    1.00000000E+00   1.00000000E+00 
SP   1    1.000000
   4.38000000E-02    1.00000000E+00   1.00000000E+00 
SP   1    1.000000
   1.31927711E-02    1.00000000E+00   1.00000000E+00 
D    1    1.000000
   6.26000000E-01    1.00000000E+00 

6    0
S    1    1.000000
   8.58850000E+03    1.89515000E-03 
S    1    1.000000
   1.29723000E+03    1.43859000E-02 
S    1    1.000000
   2.99296000E+02    7.07320000E-02 
S    1    1.000000
   8.73771000E+01    2.40001000E-01 
S    1    1.000000
   2.56789000E+01    5.94797000E-01 
S    1    1.000000
   3.74004000E+00    2.80802000E-01 
SP   3    1.000000
   4.21175000E+01    1.13889000E-01   3.65114000E-02 
   9.62837000E+00    9.20811000E-01   2.37153000E-01 
   2.85332000E+00   -3.27447000E-03   8.19702000E-01 
SP   1    1.000000
   9.05661000E-01    1.00000000E+00   1.00000000E+00 
SP   1    1.000000
   2.55611000E-01    1.00000000E+00   1.00000000E+00 
SP   1    1.000000
   8.45000000E-02    1.00000000E+00   1.00000000E+00 
SP   1    1.000000
   2.54518072E-02    1.00000000E+00   1.00000000E+00 
D    1    1.000000
   1.29200000E+00    1.00000000E+00 

7    0
S    1    1.000000
   4.56324000E+03    1.96665000E-03 
S    1    1.000000
   6.82024000E+02    1.52306000E-02 
S    1    1.000000
   1.54973000E+02    7.61269000E-02 
S    1    1.000000
   4.44553000E+01    2.60801000E-01 
S    1    1.000000
   1.30290000E+01    6.16462000E-01 
S    1    1.000000
   1.82773000E+00    2.21006000E-01 
SP   3    1.000000
   2.09642000E+01    1.14660000E-01   4.02487000E-02 
   4.80331000E+00    9.19999000E-01   2.37594000E-01 
   1.45933000E+00   -3.03068000E-03   8.15854000E-01 
SP   1    1.000000
   4.83456000E-01    1.00000000E+00   1.00000000E+00 
SP   1    1.000000
   1.45585000E-01    1.00000000E+00   1.00000000E+00 
SP   1    1.000000
   4.38000000E-02    1.00000000E+00   1.00000000E+00 
SP   1    1.000000
   1.31927711E-02    1.00000000E+00   1.00000000E+00 
D    1    1.000000
   6.26000000E-01    1.00000000E+00 

8    0
S    1    1.000000
   8.58850000E+03    1.89515000E-03 
S    1    1.000000
   1.29723000E+03    1.43859000E-02 
S    1    1.000000
   2.99296000E+02    7.07320000E-02 
S    1    1.000000
   8.73771000E+01    2.40001000E-01 
S    1    1.000000
   2.56789000E+01    5.94797000E-01 
S    1    1.000000
   3.74004000E+00    2.80802000E-01 
SP   3    1.000000
   4.21175000E+01    1.13889000E-01   3.65114000E-02 
   9.62837000E+00    9.20811000E-01   2.37153000E-01 
   2.85332000E+00   -3.27447000E-03   8.19702000E-01 
SP   1    1.000000
   9.05661000E-01    1.00000000E+00   1.00000000E+00 
SP   1    1.000000
   2.55611000E-01    1.00000000E+00   1.00000000E+00 
SP   1    1.000000
   8.45000000E-02    1.00000000E+00   1.00000000E+00 
SP   1    1.000000
   2.54518072E-02    1.00000000E+00   1.00000000E+00 
D    1    1.000000
   1.29200000E+00    1.00000000E+00 

9    0
S    1    1.000000
   6.29348000E+03    1.96979000E-03 
S    1    1.000000
   9.49044000E+02    1.49613000E-02 
S    1    1.000000
   2.18776000E+02    7.35006000E-02 
S    1    1.000000
   6.36916000E+01    2.48937000E-01 
S    1    1.000000
   1.88282000E+01    6.02460000E-01 
S    1    1.000000
   2.72023000E+00    2.56202000E-01 
SP   3    1.000000
   3.06331000E+01    1.11906000E-01   3.83119000E-02 
   7.02614000E+00    9.21666000E-01   2.37403000E-01 
   2.11205000E+00   -2.56919000E-03   8.17592000E-01 
SP   1    1.000000
   6.84009000E-01    1.00000000E+00   1.00000000E+00 
SP   1    1.000000
   2.00878000E-01    1.00000000E+00   1.00000000E+00 
SP   1    1.000000
   6.39000000E-02    1.00000000E+00   1.00000000E+00 
SP   1    1.000000
   1.92469880E-02    1.00000000E+00   1.00000000E+00 
D    1    1.000000
   9.13000000E-01    1.00000000E+00 

10    0
S    1    1.000000
   6.29348000E+03    1.96979000E-03 
S    1    1.000000
   9.49044000E+02    1.49613000E-02 
S    1    1.000000
   2.18776000E+02    7.35006000E-02 
S    1    1.000000
   6.36916000E+01    2.48937000E-01 
S    1    1.000000
   1.88282000E+01    6.02460000E-01 
S    1    1.000000
   2.72023000E+00    2.56202000E-01 
SP   3    1.000000
   3.06331000E+01    1.11906000E-01   3.83119000E-02 
   7.02614000E+00    9.21666000E-01   2.37403000E-01 
   2.11205000E+00   -2.56919000E-03   8.17592000E-01 
SP   1    1.000000
   6.84009000E-01    1.00000000E+00   1.00000000E+00 
SP   1    1.000000
   2.00878000E-01    1.00000000E+00   1.00000000E+00 
SP   1    1.000000
   6.39000000E-02    1.00000000E+00   1.00000000E+00 
SP   1    1.000000
   1.92469880E-02    1.00000000E+00   1.00000000E+00 
D    1    1.000000
   9.13000000E-01    1.00000000E+00 

11    0
S    1    1.000000
   4.56324000E+03    1.96665000E-03 
S    1    1.000000
   6.82024000E+02    1.52306000E-02 
S    1    1.000000
   1.54973000E+02    7.61269000E-02 
S    1    1.000000
   4.44553000E+01    2.60801000E-01 
S    1    1.000000
   1.30290000E+01    6.16462000E-01 
S    1    1.000000
   1.82773000E+00    2.21006000E-01 
SP   3    1.000000
   2.09642000E+01    1.14660000E-01   4.02487000E-02 
   4.80331000E+00    9.19999000E-01   2.37594000E-01 
   1.45933000E+00   -3.03068000E-03   8.15854000E-01 
SP   1    1.000000
   4.83456000E-01    1.00000000E+00   1.00000000E+00 
SP   1    1.000000
   1.45585000E-01    1.00000000E+00   1.00000000E+00 
SP   1    1.000000
   4.38000000E-02    1.00000000E+00   1.00000000E+00 
SP   1    1.000000
   1.31927711E-02    1.00000000E+00   1.00000000E+00 
D    1    1.000000
   6.26000000E-01    1.00000000E+00 

12    0
S    3    1.000000
   3.38650000E+01    2.54938000E-02 
   5.09479000E+00    1.90373000E-01 
   1.15879000E+00    8.52161000E-01 
S    1    1.000000
   3.25840000E-01    1.00000000E+00 
S    1    1.000000
   1.02741000E-01    1.00000000E+00 
S    1    1.000000
   3.60000000E-02    1.00000000E+00 
P    1    1.000000
   7.50000000E-01    1.00000000E+00 

[MO]
Sym=X
Ene=2e-05
Spin=Alpha
Occup=1
1    9.02955621e-10
2    -2.34755966e-09
3    5.66839265e-08
4    -7.52523893e-08
5    1.92577198e-06
6    7.65757735e-06
7    -3.91090086e-06
8    -1.56507223e-06
9    7.50780292e-07
10    -7.71292878e-16
11    -2.21321823e-05
12    1.59019077e-05
13    -6.25611159e-06
14    -2.48483674e-15
15    0.000167539324
16    2.81854099e-05
17    0.000159205083
18    8.76564341e-16
19    0.00276372357
20    -2.96376532e-05
21    0.00122556242
22    -5.10092995e-14
23    0.000278106785
24    0.000220992938
25    -0.000204004463
26    -3.43975803e-15
27    6.82627157e-06
28    1.05078148e-16
29    -2.90660225e-06
30    4.44880644e-16
31    5.20821985e-06
32    -6.88767472e-06
33    1.01206342e-05
34    2.54632841e-05
35    -0.000101941256
36    -3.40255657e-06
37    8.03964173e-06
38    -1.0453112e-15
39    -1.18022187e-06
40    1.99754849e-05
41    0.000120366535
42    0.000779999691
43    9.56492979e-07
44    3.74182356e-06
45    -2.66488197e-16
46    -5.93477607e-06
47    -9.51287197e-07
48    9.70092487e-05
49    -0.000131877403
50    -8.25894126e-06
51    -3.967025e-07
52    3.16740088e-16
53    8.96877316e-09
54    1.28701427e-07
55    2.79164005e-07
56    3.21769208e-06
57    7.21284233e-06
58    0.00012055809
59    1.42321372e-05
60    3.50805864e-05
61    -2.16323182e-05
62    -2.50215403e-15
63    -0.000446655344
64    0.000452479188
65    -0.00027249308
66    1.14135887e-15
67    0.000891792241
68    -0.00045403639
69    0.000279345903
70    -6.50701278e-15
71    0.00219957232
72    -0.00263748676
73    0.00172947099
74    -5.04034147e-14
75    -0.00133285896
76    -9.41206769e-05
77    -0.000207869254
78    -8.58285195e-15
79    0.000243732148
80    5.86488932e-16
81    7.98352822e-05
82    1.07882733e-15
83    -0.000127690986
84    -0.0010422882
85    -0.00792881481
86    -0.0388773183
87    -0.132311443
88    -0.327474217
89    -0.15528779
90    -0.470583183
91    -0.00159061939
92    0.000973652869
93    -9.55189176e-16
94    -0.00493235628
95    0.00074120647
96    -0.000452244988
97    -7.88455069e-16
98    0.000589442858
99    -0.000405819412
100    0.000248872639
101    -4.83726179e-15
102    -0.00320930752
103    -0.000234117821
104    0.000137408275
105    5.29997709e-15
106    -0.00740345422
107    -0.00137320015
108    0.000686898815
109    -3.49732725e-15
110    -8.60574026e-05
111    7.69062824e-16
112    7.50806335e-05
113    -2.03250484e-16
114    4.7418424e-05
115    1.23676017e-09
116    4.61968808e-09
117    6.3171575e-08
118    1.0116098e-07
119    2.01170031e-06
120    1.26118232e-05
121    -2.51208879e-06
122    -3.7856969e-06
123    -1.90735705e-06
124    1.91188948e-15
125    -3.91674382e-05
126    -1.23867855e-05
127    -1.82720813e-05
128    -1.17830369e-15
129    -1.69663134e-05
130    -0.000218756097
131    -0.000145702787
132    9.77546424e-15
133    0.00188005997
134    -0.000943977439
135    -0.000307929769
136    -7.25043408e-14
137    0.000397306911
138    -0.000149556399
139    0.000211853947
140    -4.14009821e-14
141    -1.74075499e-05
142    8.78987841e-16
143    4.53359117e-06
144    1.11785076e-15
145    -1.16985177e-05
146    -5.70703476e-05
147    -0.000434145556
148    -0.00212871225
149    -0.00724476393
150    -0.0179298321
151    -0.00849793374
152    -0.0257699239
153    8.34950489e-05
154    5.14519617e-05
155    6.58422722e-16
156    -0.000281460076
157    -3.40306219e-05
158    -2.34620909e-05
159    2.93260035e-15
160    0.000127445022
161    -3.47101193e-05
162    -1.18605003e-05
163    -1.46419877e-15
164    0.00028972482
165    -3.39637296e-05
166    -6.40149836e-05
167    1.00835446e-14
168    0.00202827438
169    -0.000317249397
170    -5.87276028e-05
171    1.54426964e-14
172    6.62466661e-06
173    1.62933124e-16
174    4.60087547e-06
175    6.19175212e-17
176    2.93242192e-06
177    1.35428078e-09
178    -2.63703632e-08
179    1.31582327e-07
180    -5.7934352e-07
181    7.11380292e-06
182    2.88910894e-05
183    -1.97697964e-05
184    -1.57610831e-05
185    1.41914772e-06
186    -1.80810797e-15
187    -4.04528694e-05
188    5.1850795e-05
189    1.02943445e-06
190    5.78173823e-15
191    -2.76368026e-05
192    -1.0705712e-05
193    2.20896985e-05
194    -1.44208399e-14
195    -0.000183133169
196    4.39855691e-05
197    -0.000218131876
198    4.30422753e-14
199    0.00154080004
200    -0.00217704717
201    6.94991254e-05
202    4.56093941e-14
203    -3.21812347e-06
204    3.3474927e-16
205    4.84012229e-06
206    1.20474822e-15
207    -3.30349181e-05
208    1.32067541e-09
209    -2.77762011e-08
210    1.33047764e-07
211    -6.07011894e-07
212    7.30534396e-06
213    2.97527014e-05
214    -2.03183374e-05
215    -8.65908137e-06
216    1.47107879e-05
217    -3.02986101e-15
218    -4.44111637e-05
219    2.35105371e-05
220    -5.10690902e-05
221    1.98448099e-15
222    1.55974599e-06
223    -1.29502366e-05
224    1.75098334e-05
225    -1.617353e-14
226    -0.000230032604
227    4.53357656e-05
228    1.20368964e-05
229    3.85768311e-14
230    0.0019170506
231    -0.000392902775
232    0.000776087021
233    1.36194846e-14
234    2.06083842e-05
235    -2.13375509e-16
236    4.07407753e-06
237    -3.85254823e-17
238    2.38808962e-05
239    -1.11433865e-10
240    -1.29467663e-09
241    -3.5572594e-09
242    -2.04962669e-08
243    1.39835381e-07
244    1.64435283e-06
245    -6.82953436e-07
246    -8.51945352e-07
247    8.0989019e-07
248    -5.01136749e-16
249    -3.58009981e-07
250    1.23239951e-05
251    -4.91399135e-06
252    -3.25140637e-16
253    -0.000246116154
254    0.000151683675
255    -7.80358379e-05
256    -5.86299202e-15
257    -0.00287957181
258    0.000629273349
259    -0.000408538698
260    5.6909222e-14
261    8.78959882e-05
262    9.35879993e-05
263    0.000272364718
264    2.21402964e-14
265    -7.94097865e-06
266    2.9749321e-16
267    -1.2875526e-06
268    6.55308905e-16
269    1.8636845e-06
270    -9.04360219e-07
271    -2.73047152e-05
272    -5.14760602e-05
273    -1.72305775e-05
274    4.42564561e-06
275    -2.8430396e-06
276    1.26183632e-16
[5D]