[Molden Format]
[Atoms] (Angs)
  C      1    6     -0.00714236     -1.70213747     -0.00000000
  H      2    1     -2.06882847     -1.44022412      0.00000000
  H      3    1     -0.12337987     -2.77567521      0.00000000
  H      4    1      0.04651892      1.98813947     -0.00000000
  C      5    6     -1.21953563      0.40211669      0.00000000
  O      6    8     -2.25921553      1.03043814      0.00000000
  C      7    6      1.28797806      0.34644937     -0.00000000
  O      8    8      2.31273661      1.00537216     -0.00000000
  N      9    7      0.03446295      0.97739857     -0.00000000
  N     10    7     -1.17287765     -0.98229824      0.00000000
  C     11    6      1.20107039     -1.10433419     -0.00000000
  H     12    1      2.11220096     -1.67699125     -0.00000000
[GTO]
1    0
S    1    1.000000
   4.56324000E+03    1.96665000E-03 
S    1    1.000000
   6.82024000E+02    1.52306000E-02 
S    1    1.000000
   1.54973000E+02    7.61269000E-02 
S    1    1.000000
   4.44553000E+01    2.60801000E-01 
S    1    1.000000
   1.30290000E+01    6.16462000E-01 
S    1    1.000000
   1.82773000E+00    2.21006000E-01 
SP   3    1.000000
   2.09642000E+01    1.14660000E-01   4.02487000E-02 
   4.80331000E+00    9.19999000E-01   2.37594000E-01 
   1.45933000E+00   -3.03068000E-03   8.15854000E-01 
SP   1    1.000000
   4.83456000E-01    1.00000000E+00   1.00000000E+00 
SP   1    1.000000
   1.45585000E-01    1.00000000E+00   1.00000000E+00 
SP   1    1.000000
   4.38000000E-02    1.00000000E+00   1.00000000E+00 
SP   1    1.000000
   1.31927711E-02    1.00000000E+00   1.00000000E+00 
D    1    1.000000
   6.26000000E-01    1.00000000E+00 

2    0
S    3    1.000000
   3.38650000E+01    2.54938000E-02 
   5.09479000E+00    1.90373000E-01 
   1.15879000E+00    8.52161000E-01 
S    1    1.000000
   3.25840000E-01    1.00000000E+00 
S    1    1.000000
   1.02741000E-01    1.00000000E+00 
S    1    1.000000
   3.60000000E-02    1.00000000E+00 
P    1    1.000000
   7.50000000E-01    1.00000000E+00 

3    0
S    3    1.000000
   3.38650000E+01    2.54938000E-02 
   5.09479000E+00    1.90373000E-01 
   1.15879000E+00    8.52161000E-01 
S    1    1.000000
   3.25840000E-01    1.00000000E+00 
S    1    1.000000
   1.02741000E-01    1.00000000E+00 
S    1    1.000000
   3.60000000E-02    1.00000000E+00 
P    1    1.000000
   7.50000000E-01    1.00000000E+00 

4    0
S    3    1.000000
   3.38650000E+01    2.54938000E-02 
   5.09479000E+00    1.90373000E-01 
   1.15879000E+00    8.52161000E-01 
S    1    1.000000
   3.25840000E-01    1.00000000E+00 
S    1    1.000000
   1.02741000E-01    1.00000000E+00 
S    1    1.000000
   3.60000000E-02    1.00000000E+00 
P    1    1.000000
   7.50000000E-01    1.00000000E+00 

5    0
S    1    1.000000
   4.56324000E+03    1.96665000E-03 
S    1    1.000000
   6.82024000E+02    1.52306000E-02 
S    1    1.000000
   1.54973000E+02    7.61269000E-02 
S    1    1.000000
   4.44553000E+01    2.60801000E-01 
S    1    1.000000
   1.30290000E+01    6.16462000E-01 
S    1    1.000000
   1.82773000E+00    2.21006000E-01 
SP   3    1.000000
   2.09642000E+01    1.14660000E-01   4.02487000E-02 
   4.80331000E+00    9.19999000E-01   2.37594000E-01 
   1.45933000E+00   -3.03068000E-03   8.15854000E-01 
SP   1    1.000000
   4.83456000E-01    1.00000000E+00   1.00000000E+00 
SP   1    1.000000
   1.45585000E-01    1.00000000E+00   1.00000000E+00 
SP   1    1.000000
   4.38000000E-02    1.00000000E+00   1.00000000E+00 
SP   1    1.000000
   1.31927711E-02    1.00000000E+00   1.00000000E+00 
D    1    1.000000
   6.26000000E-01    1.00000000E+00 

6    0
S    1    1.000000
   8.58850000E+03    1.89515000E-03 
S    1    1.000000
   1.29723000E+03    1.43859000E-02 
S    1    1.000000
   2.99296000E+02    7.07320000E-02 
S    1    1.000000
   8.73771000E+01    2.40001000E-01 
S    1    1.000000
   2.56789000E+01    5.94797000E-01 
S    1    1.000000
   3.74004000E+00    2.80802000E-01 
SP   3    1.000000
   4.21175000E+01    1.13889000E-01   3.65114000E-02 
   9.62837000E+00    9.20811000E-01   2.37153000E-01 
   2.85332000E+00   -3.27447000E-03   8.19702000E-01 
SP   1    1.000000
   9.05661000E-01    1.00000000E+00   1.00000000E+00 
SP   1    1.000000
   2.55611000E-01    1.00000000E+00   1.00000000E+00 
SP   1    1.000000
   8.45000000E-02    1.00000000E+00   1.00000000E+00 
SP   1    1.000000
   2.54518072E-02    1.00000000E+00   1.00000000E+00 
D    1    1.000000
   1.29200000E+00    1.00000000E+00 

7    0
S    1    1.000000
   4.56324000E+03    1.96665000E-03 
S    1    1.000000
   6.82024000E+02    1.52306000E-02 
S    1    1.000000
   1.54973000E+02    7.61269000E-02 
S    1    1.000000
   4.44553000E+01    2.60801000E-01 
S    1    1.000000
   1.30290000E+01    6.16462000E-01 
S    1    1.000000
   1.82773000E+00    2.21006000E-01 
SP   3    1.000000
   2.09642000E+01    1.14660000E-01   4.02487000E-02 
   4.80331000E+00    9.19999000E-01   2.37594000E-01 
   1.45933000E+00   -3.03068000E-03   8.15854000E-01 
SP   1    1.000000
   4.83456000E-01    1.00000000E+00   1.00000000E+00 
SP   1    1.000000
   1.45585000E-01    1.00000000E+00   1.00000000E+00 
SP   1    1.000000
   4.38000000E-02    1.00000000E+00   1.00000000E+00 
SP   1    1.000000
   1.31927711E-02    1.00000000E+00   1.00000000E+00 
D    1    1.000000
   6.26000000E-01    1.00000000E+00 

8    0
S    1    1.000000
   8.58850000E+03    1.89515000E-03 
S    1    1.000000
   1.29723000E+03    1.43859000E-02 
S    1    1.000000
   2.99296000E+02    7.07320000E-02 
S    1    1.000000
   8.73771000E+01    2.40001000E-01 
S    1    1.000000
   2.56789000E+01    5.94797000E-01 
S    1    1.000000
   3.74004000E+00    2.80802000E-01 
SP   3    1.000000
   4.21175000E+01    1.13889000E-01   3.65114000E-02 
   9.62837000E+00    9.20811000E-01   2.37153000E-01 
   2.85332000E+00   -3.27447000E-03   8.19702000E-01 
SP   1    1.000000
   9.05661000E-01    1.00000000E+00   1.00000000E+00 
SP   1    1.000000
   2.55611000E-01    1.00000000E+00   1.00000000E+00 
SP   1    1.000000
   8.45000000E-02    1.00000000E+00   1.00000000E+00 
SP   1    1.000000
   2.54518072E-02    1.00000000E+00   1.00000000E+00 
D    1    1.000000
   1.29200000E+00    1.00000000E+00 

9    0
S    1    1.000000
   6.29348000E+03    1.96979000E-03 
S    1    1.000000
   9.49044000E+02    1.49613000E-02 
S    1    1.000000
   2.18776000E+02    7.35006000E-02 
S    1    1.000000
   6.36916000E+01    2.48937000E-01 
S    1    1.000000
   1.88282000E+01    6.02460000E-01 
S    1    1.000000
   2.72023000E+00    2.56202000E-01 
SP   3    1.000000
   3.06331000E+01    1.11906000E-01   3.83119000E-02 
   7.02614000E+00    9.21666000E-01   2.37403000E-01 
   2.11205000E+00   -2.56919000E-03   8.17592000E-01 
SP   1    1.000000
   6.84009000E-01    1.00000000E+00   1.00000000E+00 
SP   1    1.000000
   2.00878000E-01    1.00000000E+00   1.00000000E+00 
SP   1    1.000000
   6.39000000E-02    1.00000000E+00   1.00000000E+00 
SP   1    1.000000
   1.92469880E-02    1.00000000E+00   1.00000000E+00 
D    1    1.000000
   9.13000000E-01    1.00000000E+00 

10    0
S    1    1.000000
   6.29348000E+03    1.96979000E-03 
S    1    1.000000
   9.49044000E+02    1.49613000E-02 
S    1    1.000000
   2.18776000E+02    7.35006000E-02 
S    1    1.000000
   6.36916000E+01    2.48937000E-01 
S    1    1.000000
   1.88282000E+01    6.02460000E-01 
S    1    1.000000
   2.72023000E+00    2.56202000E-01 
SP   3    1.000000
   3.06331000E+01    1.11906000E-01   3.83119000E-02 
   7.02614000E+00    9.21666000E-01   2.37403000E-01 
   2.11205000E+00   -2.56919000E-03   8.17592000E-01 
SP   1    1.000000
   6.84009000E-01    1.00000000E+00   1.00000000E+00 
SP   1    1.000000
   2.00878000E-01    1.00000000E+00   1.00000000E+00 
SP   1    1.000000
   6.39000000E-02    1.00000000E+00   1.00000000E+00 
SP   1    1.000000
   1.92469880E-02    1.00000000E+00   1.00000000E+00 
D    1    1.000000
   9.13000000E-01    1.00000000E+00 

11    0
S    1    1.000000
   4.56324000E+03    1.96665000E-03 
S    1    1.000000
   6.82024000E+02    1.52306000E-02 
S    1    1.000000
   1.54973000E+02    7.61269000E-02 
S    1    1.000000
   4.44553000E+01    2.60801000E-01 
S    1    1.000000
   1.30290000E+01    6.16462000E-01 
S    1    1.000000
   1.82773000E+00    2.21006000E-01 
SP   3    1.000000
   2.09642000E+01    1.14660000E-01   4.02487000E-02 
   4.80331000E+00    9.19999000E-01   2.37594000E-01 
   1.45933000E+00   -3.03068000E-03   8.15854000E-01 
SP   1    1.000000
   4.83456000E-01    1.00000000E+00   1.00000000E+00 
SP   1    1.000000
   1.45585000E-01    1.00000000E+00   1.00000000E+00 
SP   1    1.000000
   4.38000000E-02    1.00000000E+00   1.00000000E+00 
SP   1    1.000000
   1.31927711E-02    1.00000000E+00   1.00000000E+00 
D    1    1.000000
   6.26000000E-01    1.00000000E+00 

12    0
S    3    1.000000
   3.38650000E+01    2.54938000E-02 
   5.09479000E+00    1.90373000E-01 
   1.15879000E+00    8.52161000E-01 
S    1    1.000000
   3.25840000E-01    1.00000000E+00 
S    1    1.000000
   1.02741000E-01    1.00000000E+00 
S    1    1.000000
   3.60000000E-02    1.00000000E+00 
P    1    1.000000
   7.50000000E-01    1.00000000E+00 

[MO]
Sym=X
Ene=0.000104
Spin=Alpha
Occup=1
1    7.96119057e-10
2    -1.61053782e-09
3    4.89658911e-08
4    -5.62967461e-08
5    1.62433904e-06
6    6.48019762e-06
7    -3.23332443e-06
8    -1.62991506e-06
9    5.95318669e-07
10    -7.76832589e-16
11    -1.8988314e-05
12    1.68029453e-05
13    -5.28463161e-06
14    -2.54205281e-15
15    0.000146406955
16    2.63190703e-05
17    0.00014664087
18    5.5322861e-16
19    0.00289982998
20    -1.52093646e-06
21    0.00121256551
22    -4.79219422e-14
23    0.00032107732
24    0.000238982747
25    -0.000201229467
26    -1.03030221e-14
27    7.74010687e-06
28    1.04378926e-16
29    -2.68265723e-06
30    4.35894368e-16
31    4.71040131e-06
32    -6.87502506e-06
33    1.17375933e-05
34    2.502563e-05
35    -9.42688445e-05
36    -3.35702796e-06
37    8.17298434e-06
38    -1.06172964e-15
39    -1.27748326e-06
40    1.95308306e-05
41    0.000110179944
42    0.000761980921
43    1.15281727e-06
44    3.54683203e-06
45    -2.5682126e-16
46    -5.48604643e-06
47    -9.54878879e-07
48    9.76300878e-05
49    -0.000124488663
50    -8.59903375e-06
51    -4.63948841e-07
52    3.13804448e-16
53    8.92331458e-09
54    1.29016987e-07
55    2.75950364e-07
56    3.22677873e-06
57    7.10348878e-06
58    0.000120263347
59    1.44918218e-05
60    3.50932039e-05
61    -2.16256851e-05
62    -2.45399873e-15
63    -0.000445958306
64    0.000453465387
65    -0.000272732035
66    9.61419296e-16
67    0.00089017147
68    -0.000471715402
69    0.000286847638
70    -6.29184964e-15
71    0.00213986923
72    -0.00271491495
73    0.00174000092
74    -4.93119568e-14
75    -0.00140323426
76    -0.000109921126
77    -0.000236097234
78    -5.23460927e-15
79    0.000243887916
80    6.18999537e-16
81    8.00470893e-05
82    1.10221502e-15
83    -0.000127557183
84    -0.0010438059
85    -0.00794035996
86    -0.038933929
87    -0.132504101
88    -0.327951098
89    -0.155514069
90    -0.471268305
91    -0.00159305062
92    0.000975033029
93    -9.96563245e-16
94    -0.00493899017
95    0.000742659961
96    -0.000452825091
97    -6.96903054e-16
98    0.000585348174
99    -0.000409582797
100    0.000250472168
101    -5.1565801e-15
102    -0.0032428875
103    -0.000236097538
104    0.000143043703
105    5.70626278e-15
106    -0.00757327301
107    -0.00140006524
108    0.000693388302
109    -4.82466807e-15
110    -8.60741469e-05
111    7.73857284e-16
112    7.52616546e-05
113    -1.82234994e-16
114    4.74833119e-05
115    7.35643346e-10
116    -3.07067721e-09
117    4.82855963e-08
118    -9.36005645e-08
119    1.60953122e-06
120    5.4187269e-06
121    -3.45496748e-06
122    -1.73268693e-06
123    -3.17791542e-07
124    1.8861539e-15
125    -1.26429046e-05
126    1.52897357e-05
127    4.69792087e-08
128    -9.78478439e-16
129    -6.83439078e-05
130    -0.000239967228
131    -0.000159471536
132    9.53460813e-15
133    0.00185746961
134    -0.00114830872
135    -0.000414492556
136    -6.79466585e-14
137    0.000410021322
138    -0.000177876445
139    0.000259732557
140    -4.55569281e-14
141    -1.53471357e-06
142    9.16946301e-16
143    -1.65774092e-07
144    1.14490641e-15
145    -4.52632219e-06
146    9.53598348e-06
147    7.25370608e-05
148    0.000355701817
149    0.00121044041
150    0.00299691934
151    0.0014241926
152    0.00430313831
153    -1.59006929e-05
154    -8.3731387e-06
155    7.28835802e-16
156    3.36091386e-05
157    1.21598961e-05
158    4.24756257e-06
159    2.90072652e-15
160    8.6800891e-05
161    -5.96064722e-05
162    -2.61624239e-05
163    -1.04636907e-15
164    0.000483097797
165    -4.36603775e-05
166    -7.35146546e-05
167    9.2338702e-15
168    0.00244199659
169    -0.000394086521
170    -8.28218715e-05
171    1.51975002e-14
172    7.73251858e-07
173    1.67033399e-16
174    -2.24785926e-06
175    5.05162795e-17
176    2.87994971e-08
177    1.30628526e-09
178    -2.4852578e-08
179    1.25679072e-07
180    -5.46858201e-07
181    6.75255391e-06
182    2.73991065e-05
183    -1.8715597e-05
184    -1.68941762e-05
185    1.50473672e-06
186    -1.76193252e-15
187    -3.89733627e-05
188    5.55709948e-05
189    4.77240517e-07
190    5.76184623e-15
191    -1.98125767e-05
192    -1.38104567e-05
193    1.84602808e-05
194    -1.40105241e-14
195    -0.000192639674
196    3.77642099e-05
197    -0.000212233562
198    4.11753867e-14
199    0.00140406144
200    -0.00236112273
201    7.31708217e-05
202    4.39053174e-14
203    -4.013805e-06
204    3.7550739e-16
205    4.44586982e-06
206    1.22291581e-15
207    -3.12670016e-05
208    1.31177863e-09
209    -2.7579127e-08
210    1.32095861e-07
211    -6.0272622e-07
212    7.25626325e-06
213    2.95606884e-05
214    -2.01970699e-05
215    -8.704521e-06
216    1.47691168e-05
217    -3.01232476e-15
218    -4.43082458e-05
219    2.38057111e-05
220    -5.1310618e-05
221    1.76521849e-15
222    9.0931377e-06
223    -6.77047846e-06
224    1.96250212e-05
225    -1.58419206e-14
226    -0.000187691707
227    6.13846512e-05
228    1.41465039e-05
229    3.66219781e-14
230    0.00192143638
231    -0.000377103959
232    0.000769423617
233    1.42630486e-14
234    2.03817664e-05
235    -2.08474965e-16
236    4.11077126e-06
237    -2.32366308e-17
238    2.38250864e-05
239    -2.2514215e-11
240    -1.07670334e-10
241    -1.04466193e-09
242    1.38160432e-09
243    5.4241761e-08
244    9.86413846e-07
245    -2.25900593e-07
246    -1.35842379e-06
247    -7.6190487e-08
248    -4.40572727e-16
249    1.32555036e-07
250    1.37008174e-05
251    -4.08786412e-07
252    -5.78945927e-16
253    -0.000235065991
254    0.000143532617
255    -7.95282252e-05
256    -5.17522834e-15
257    -0.00310636116
258    0.000739024927
259    -0.000413837015
260    5.21523415e-14
261    0.000119793563
262    0.000113504382
263    0.000283919268
264    2.99681282e-14
265    -5.41478845e-06
266    3.10947895e-16
267    -1.28805732e-06
268    6.43660655e-16
269    -6.6789284e-07
270    -5.4200836e-07
271    -2.39237018e-05
272    -5.59643337e-05
273    -7.86199053e-05
274    3.49173425e-06
275    -2.46125857e-06
276    1.17563815e-16
[5D]