[Molden Format]
[Atoms] (Angs)
  C      1    6     -0.00714236     -1.70213747     -0.00000000
  H      2    1     -2.06882847     -1.44022412      0.00000000
  H      3    1     -0.12337987     -2.77567521      0.00000000
  H      4    1      0.04651892      1.98813947     -0.00000000
  C      5    6     -1.21953563      0.40211669      0.00000000
  O      6    8     -2.25921553      1.03043814      0.00000000
  C      7    6      1.28797806      0.34644937     -0.00000000
  O      8    8      2.31273661      1.00537216     -0.00000000
  N      9    7      0.03446295      0.97739857     -0.00000000
  N     10    7     -1.17287765     -0.98229824      0.00000000
  C     11    6      1.20107039     -1.10433419     -0.00000000
  H     12    1      2.11220096     -1.67699125     -0.00000000
[GTO]
1    0
S    1    1.000000
   4.56324000E+03    1.96665000E-03 
S    1    1.000000
   6.82024000E+02    1.52306000E-02 
S    1    1.000000
   1.54973000E+02    7.61269000E-02 
S    1    1.000000
   4.44553000E+01    2.60801000E-01 
S    1    1.000000
   1.30290000E+01    6.16462000E-01 
S    1    1.000000
   1.82773000E+00    2.21006000E-01 
SP   3    1.000000
   2.09642000E+01    1.14660000E-01   4.02487000E-02 
   4.80331000E+00    9.19999000E-01   2.37594000E-01 
   1.45933000E+00   -3.03068000E-03   8.15854000E-01 
SP   1    1.000000
   4.83456000E-01    1.00000000E+00   1.00000000E+00 
SP   1    1.000000
   1.45585000E-01    1.00000000E+00   1.00000000E+00 
SP   1    1.000000
   4.38000000E-02    1.00000000E+00   1.00000000E+00 
SP   1    1.000000
   1.31927711E-02    1.00000000E+00   1.00000000E+00 
D    1    1.000000
   6.26000000E-01    1.00000000E+00 

2    0
S    3    1.000000
   3.38650000E+01    2.54938000E-02 
   5.09479000E+00    1.90373000E-01 
   1.15879000E+00    8.52161000E-01 
S    1    1.000000
   3.25840000E-01    1.00000000E+00 
S    1    1.000000
   1.02741000E-01    1.00000000E+00 
S    1    1.000000
   3.60000000E-02    1.00000000E+00 
P    1    1.000000
   7.50000000E-01    1.00000000E+00 

3    0
S    3    1.000000
   3.38650000E+01    2.54938000E-02 
   5.09479000E+00    1.90373000E-01 
   1.15879000E+00    8.52161000E-01 
S    1    1.000000
   3.25840000E-01    1.00000000E+00 
S    1    1.000000
   1.02741000E-01    1.00000000E+00 
S    1    1.000000
   3.60000000E-02    1.00000000E+00 
P    1    1.000000
   7.50000000E-01    1.00000000E+00 

4    0
S    3    1.000000
   3.38650000E+01    2.54938000E-02 
   5.09479000E+00    1.90373000E-01 
   1.15879000E+00    8.52161000E-01 
S    1    1.000000
   3.25840000E-01    1.00000000E+00 
S    1    1.000000
   1.02741000E-01    1.00000000E+00 
S    1    1.000000
   3.60000000E-02    1.00000000E+00 
P    1    1.000000
   7.50000000E-01    1.00000000E+00 

5    0
S    1    1.000000
   4.56324000E+03    1.96665000E-03 
S    1    1.000000
   6.82024000E+02    1.52306000E-02 
S    1    1.000000
   1.54973000E+02    7.61269000E-02 
S    1    1.000000
   4.44553000E+01    2.60801000E-01 
S    1    1.000000
   1.30290000E+01    6.16462000E-01 
S    1    1.000000
   1.82773000E+00    2.21006000E-01 
SP   3    1.000000
   2.09642000E+01    1.14660000E-01   4.02487000E-02 
   4.80331000E+00    9.19999000E-01   2.37594000E-01 
   1.45933000E+00   -3.03068000E-03   8.15854000E-01 
SP   1    1.000000
   4.83456000E-01    1.00000000E+00   1.00000000E+00 
SP   1    1.000000
   1.45585000E-01    1.00000000E+00   1.00000000E+00 
SP   1    1.000000
   4.38000000E-02    1.00000000E+00   1.00000000E+00 
SP   1    1.000000
   1.31927711E-02    1.00000000E+00   1.00000000E+00 
D    1    1.000000
   6.26000000E-01    1.00000000E+00 

6    0
S    1    1.000000
   8.58850000E+03    1.89515000E-03 
S    1    1.000000
   1.29723000E+03    1.43859000E-02 
S    1    1.000000
   2.99296000E+02    7.07320000E-02 
S    1    1.000000
   8.73771000E+01    2.40001000E-01 
S    1    1.000000
   2.56789000E+01    5.94797000E-01 
S    1    1.000000
   3.74004000E+00    2.80802000E-01 
SP   3    1.000000
   4.21175000E+01    1.13889000E-01   3.65114000E-02 
   9.62837000E+00    9.20811000E-01   2.37153000E-01 
   2.85332000E+00   -3.27447000E-03   8.19702000E-01 
SP   1    1.000000
   9.05661000E-01    1.00000000E+00   1.00000000E+00 
SP   1    1.000000
   2.55611000E-01    1.00000000E+00   1.00000000E+00 
SP   1    1.000000
   8.45000000E-02    1.00000000E+00   1.00000000E+00 
SP   1    1.000000
   2.54518072E-02    1.00000000E+00   1.00000000E+00 
D    1    1.000000
   1.29200000E+00    1.00000000E+00 

7    0
S    1    1.000000
   4.56324000E+03    1.96665000E-03 
S    1    1.000000
   6.82024000E+02    1.52306000E-02 
S    1    1.000000
   1.54973000E+02    7.61269000E-02 
S    1    1.000000
   4.44553000E+01    2.60801000E-01 
S    1    1.000000
   1.30290000E+01    6.16462000E-01 
S    1    1.000000
   1.82773000E+00    2.21006000E-01 
SP   3    1.000000
   2.09642000E+01    1.14660000E-01   4.02487000E-02 
   4.80331000E+00    9.19999000E-01   2.37594000E-01 
   1.45933000E+00   -3.03068000E-03   8.15854000E-01 
SP   1    1.000000
   4.83456000E-01    1.00000000E+00   1.00000000E+00 
SP   1    1.000000
   1.45585000E-01    1.00000000E+00   1.00000000E+00 
SP   1    1.000000
   4.38000000E-02    1.00000000E+00   1.00000000E+00 
SP   1    1.000000
   1.31927711E-02    1.00000000E+00   1.00000000E+00 
D    1    1.000000
   6.26000000E-01    1.00000000E+00 

8    0
S    1    1.000000
   8.58850000E+03    1.89515000E-03 
S    1    1.000000
   1.29723000E+03    1.43859000E-02 
S    1    1.000000
   2.99296000E+02    7.07320000E-02 
S    1    1.000000
   8.73771000E+01    2.40001000E-01 
S    1    1.000000
   2.56789000E+01    5.94797000E-01 
S    1    1.000000
   3.74004000E+00    2.80802000E-01 
SP   3    1.000000
   4.21175000E+01    1.13889000E-01   3.65114000E-02 
   9.62837000E+00    9.20811000E-01   2.37153000E-01 
   2.85332000E+00   -3.27447000E-03   8.19702000E-01 
SP   1    1.000000
   9.05661000E-01    1.00000000E+00   1.00000000E+00 
SP   1    1.000000
   2.55611000E-01    1.00000000E+00   1.00000000E+00 
SP   1    1.000000
   8.45000000E-02    1.00000000E+00   1.00000000E+00 
SP   1    1.000000
   2.54518072E-02    1.00000000E+00   1.00000000E+00 
D    1    1.000000
   1.29200000E+00    1.00000000E+00 

9    0
S    1    1.000000
   6.29348000E+03    1.96979000E-03 
S    1    1.000000
   9.49044000E+02    1.49613000E-02 
S    1    1.000000
   2.18776000E+02    7.35006000E-02 
S    1    1.000000
   6.36916000E+01    2.48937000E-01 
S    1    1.000000
   1.88282000E+01    6.02460000E-01 
S    1    1.000000
   2.72023000E+00    2.56202000E-01 
SP   3    1.000000
   3.06331000E+01    1.11906000E-01   3.83119000E-02 
   7.02614000E+00    9.21666000E-01   2.37403000E-01 
   2.11205000E+00   -2.56919000E-03   8.17592000E-01 
SP   1    1.000000
   6.84009000E-01    1.00000000E+00   1.00000000E+00 
SP   1    1.000000
   2.00878000E-01    1.00000000E+00   1.00000000E+00 
SP   1    1.000000
   6.39000000E-02    1.00000000E+00   1.00000000E+00 
SP   1    1.000000
   1.92469880E-02    1.00000000E+00   1.00000000E+00 
D    1    1.000000
   9.13000000E-01    1.00000000E+00 

10    0
S    1    1.000000
   6.29348000E+03    1.96979000E-03 
S    1    1.000000
   9.49044000E+02    1.49613000E-02 
S    1    1.000000
   2.18776000E+02    7.35006000E-02 
S    1    1.000000
   6.36916000E+01    2.48937000E-01 
S    1    1.000000
   1.88282000E+01    6.02460000E-01 
S    1    1.000000
   2.72023000E+00    2.56202000E-01 
SP   3    1.000000
   3.06331000E+01    1.11906000E-01   3.83119000E-02 
   7.02614000E+00    9.21666000E-01   2.37403000E-01 
   2.11205000E+00   -2.56919000E-03   8.17592000E-01 
SP   1    1.000000
   6.84009000E-01    1.00000000E+00   1.00000000E+00 
SP   1    1.000000
   2.00878000E-01    1.00000000E+00   1.00000000E+00 
SP   1    1.000000
   6.39000000E-02    1.00000000E+00   1.00000000E+00 
SP   1    1.000000
   1.92469880E-02    1.00000000E+00   1.00000000E+00 
D    1    1.000000
   9.13000000E-01    1.00000000E+00 

11    0
S    1    1.000000
   4.56324000E+03    1.96665000E-03 
S    1    1.000000
   6.82024000E+02    1.52306000E-02 
S    1    1.000000
   1.54973000E+02    7.61269000E-02 
S    1    1.000000
   4.44553000E+01    2.60801000E-01 
S    1    1.000000
   1.30290000E+01    6.16462000E-01 
S    1    1.000000
   1.82773000E+00    2.21006000E-01 
SP   3    1.000000
   2.09642000E+01    1.14660000E-01   4.02487000E-02 
   4.80331000E+00    9.19999000E-01   2.37594000E-01 
   1.45933000E+00   -3.03068000E-03   8.15854000E-01 
SP   1    1.000000
   4.83456000E-01    1.00000000E+00   1.00000000E+00 
SP   1    1.000000
   1.45585000E-01    1.00000000E+00   1.00000000E+00 
SP   1    1.000000
   4.38000000E-02    1.00000000E+00   1.00000000E+00 
SP   1    1.000000
   1.31927711E-02    1.00000000E+00   1.00000000E+00 
D    1    1.000000
   6.26000000E-01    1.00000000E+00 

12    0
S    3    1.000000
   3.38650000E+01    2.54938000E-02 
   5.09479000E+00    1.90373000E-01 
   1.15879000E+00    8.52161000E-01 
S    1    1.000000
   3.25840000E-01    1.00000000E+00 
S    1    1.000000
   1.02741000E-01    1.00000000E+00 
S    1    1.000000
   3.60000000E-02    1.00000000E+00 
P    1    1.000000
   7.50000000E-01    1.00000000E+00 

[MO]
Sym=X
Ene=0.013935
Spin=Alpha
Occup=1
1    -8.11710642e-10
2    1.71712276e-09
3    -5.00901039e-08
4    5.90417664e-08
5    -1.66817354e-06
6    -6.65144675e-06
7    3.33175289e-06
8    1.6209828e-06
9    -6.17865068e-07
10    7.76229641e-16
11    1.94460109e-05
12    -1.66773566e-05
13    5.4259171e-06
14    2.53444844e-15
15    -0.000149488205
16    -2.65945592e-05
17    -0.000148487792
18    -5.99949519e-16
19    -0.00288095
20    5.57200339e-06
21    -0.00121474253
22    4.83787658e-14
23    -0.000314967348
24    -0.000236451045
25    0.000201679801
26    9.31684185e-15
27    -7.61039787e-06
28    -1.04505881e-16
29    2.71559415e-06
30    -4.37298489e-16
31    -4.78330367e-06
32    6.87857446e-06
33    -1.15075917e-05
34    -2.50949678e-05
35    9.53978645e-05
36    3.3644304e-06
37    -8.15582715e-06
38    1.059631e-15
39    1.26379203e-06
40    -1.95997967e-05
41    -0.000111675171
42    -0.000764768237
43    -1.12482305e-06
44    -3.5758148e-06
45    2.58278458e-16
46    5.55207156e-06
47    9.54601303e-07
48    -9.75651702e-05
49    0.000125584407
50    8.5521978e-06
51    4.54377421e-07
52    -3.14306204e-16
53    -8.93210518e-09
54    -1.29003935e-07
55    -2.76482662e-07
56    -3.22628021e-06
57    -7.12102739e-06
58    -0.00012033602
59    -1.44580503e-05
60    -3.51002015e-05
61    2.16320731e-05
62    2.46155275e-15
63    0.000446170751
64    -0.000453437219
65    0.00027276612
66    -9.8758412e-16
67    -0.000890628581
68    0.000469286939
69    -0.000285838943
70    6.32442801e-15
71    -0.002149008
72    0.0027044421
73    -0.001738921
74    4.94815868e-14
75    0.00139344801
76    0.000107672418
77    0.000232089828
78    5.71829475e-15
79    -0.00024392674
80    -6.14471331e-16
81    -8.00366828e-05
82    -1.09912251e-15
83    0.000127608502
84    0.00104384945
85    0.00794069131
86    0.0389355535
87    0.13250963
88    0.327964776
89    0.155520535
90    0.471287984
91    0.00159310053
92    -0.000975079122
93    9.90852953e-16
94    0.00493927512
95    -0.000742637117
96    0.000452855267
97    7.10267721e-16
98    -0.000586085122
99    0.000409143505
100    -0.000250304648
101    5.11187227e-15
102    0.00323886435
103    0.000235871634
104    -0.000142267758
105    -5.64916392e-15
106    0.00755071017
107    0.00139654657
108    -0.000692627561
109    4.63465431e-15
110    8.60933564e-05
111    -7.73360955e-16
112    -7.52544812e-05
113    1.85308405e-16
114    -4.74858915e-05
115    -8.08022427e-10
116    1.96352239e-09
117    -5.04423007e-08
118    6.55654083e-08
119    -1.66787474e-06
120    -6.4563743e-06
121    3.31999787e-06
122    2.02889272e-06
123    5.46874957e-07
124    -1.89033535e-15
125    1.64673847e-05
126    -1.13063092e-05
127    2.59217707e-06
128    1.00751241e-15
129    6.09592712e-05
130    0.000236971689
131    0.000157527976
132    -9.57170259e-15
133    -0.00186119073
134    0.00111915982
135    0.000399244519
136    6.86203373e-14
137    -0.000408292595
138    0.00017384115
139    -0.000252900085
140    4.49696382e-14
141    3.82184752e-06
142    -9.11708085e-16
143    -5.1120669e-07
144    -1.14129619e-15
145    5.56073432e-06
146    5.73807655e-08
147    4.40851254e-07
148    2.13036785e-06
149    7.36959463e-06
150    1.7177555e-05
151    4.8984384e-06
152    2.83100012e-05
153    1.58506266e-06
154    -2.43567584e-07
155    -7.188747e-16
156    1.17734262e-05
157    -5.50843141e-06
158    -2.5658899e-07
159    -2.90604714e-15
160    -9.26781646e-05
161    5.6034708e-05
162    2.41085638e-05
163    1.1068273e-15
164    -0.000455360529
165    4.22743802e-05
166    7.21645345e-05
167    -9.3585996e-15
168    -0.00238300639
169    0.000383115839
170    7.93714926e-05
171    -1.52366424e-14
172    -1.61644059e-06
173    -1.66484645e-16
174    1.26174876e-06
175    -5.21715094e-17
176    -4.47122266e-07
177    -1.31352796e-09
178    2.50774834e-08
179    -1.26561106e-07
180    5.51675627e-07
181    -6.80629414e-06
182    -2.76209344e-05
183    1.88721735e-05
184    1.67351789e-05
185    -1.49278418e-06
186    1.76902746e-15
187    3.91963006e-05
188    -5.5048997e-05
189    -5.56913202e-07
190    -5.76615938e-15
191    2.09447647e-05
192    1.33666353e-05
193    -1.89877965e-05
194    1.40731565e-14
195    0.000191318493
196    -3.86699874e-05
197    0.000213136626
198    -4.14546866e-14
199    -0.00142411363
200    0.00233519667
201    -7.26602327e-05
202    -4.41618473e-14
203    3.90018199e-06
204    -3.69729826e-16
205    -4.50378531e-06
206    -1.22060566e-15
207    3.15295539e-05
208    -1.31338988e-09
209    2.76144467e-08
210    -1.32266181e-07
211    6.03495049e-07
212    -7.26515693e-06
213    -2.95957767e-05
214    2.0219614e-05
215    8.70016124e-06
216    -1.47644236e-05
217    3.01560785e-15
218    4.4334203e-05
219    -2.37691663e-05
220    5.12887111e-05
221    -1.79725036e-15
222    -8.01011041e-06
223    7.66247707e-06
224    -1.93252227e-05
225    1.5893674e-14
226    0.000193838772
227    -5.90879597e-05
228    -1.38461331e-05
229    -3.69128069e-14
230    -0.0019212872
231    0.000379474772
232    -0.000770576871
233    -1.41739153e-14
234    -2.04195344e-05
235    2.09233339e-16
236    -4.10651754e-06
237    2.54450835e-17
238    -2.38391116e-05
239    3.53302383e-11
240    2.78705557e-10
241    1.40690618e-09
242    1.7699231e-09
243    -6.65865838e-08
244    -1.08144878e-06
245    2.91803471e-07
246    1.28579831e-06
247    -5.14451645e-08
248    4.49408663e-16
249    -6.19142114e-08
250    -1.35059047e-05
251    1.05793947e-06
252    5.42526447e-16
253    0.000236717001
254    -0.000144742969
255    7.93331993e-05
256    5.27561226e-15
257    0.00307446866
258    -0.000723399014
259    0.00041317766
260    -5.28507506e-14
261    -0.000115228274
262    -0.000110663605
263    -0.000282325961
264    -2.88479256e-14
265    5.78008874e-06
266    -3.09087632e-16
267    1.28830817e-06
268    -6.45500468e-16
269    3.03344417e-07
270    5.94347379e-07
271    2.44168032e-05
272    5.53317809e-05
273    6.97954918e-05
274    -3.62715698e-06
275    2.5168788e-06
276    -1.18835177e-16
[5D]