[Molden Format]
[Atoms] (Angs)
  C      1    6     -0.00714236     -1.70213747     -0.00000000
  H      2    1     -2.06882847     -1.44022412      0.00000000
  H      3    1     -0.12337987     -2.77567521      0.00000000
  H      4    1      0.04651892      1.98813947     -0.00000000
  C      5    6     -1.21953563      0.40211669      0.00000000
  O      6    8     -2.25921553      1.03043814      0.00000000
  C      7    6      1.28797806      0.34644937     -0.00000000
  O      8    8      2.31273661      1.00537216     -0.00000000
  N      9    7      0.03446295      0.97739857     -0.00000000
  N     10    7     -1.17287765     -0.98229824      0.00000000
  C     11    6      1.20107039     -1.10433419     -0.00000000
  H     12    1      2.11220096     -1.67699125     -0.00000000
[GTO]
1    0
S    1    1.000000
   4.56324000E+03    1.96665000E-03 
S    1    1.000000
   6.82024000E+02    1.52306000E-02 
S    1    1.000000
   1.54973000E+02    7.61269000E-02 
S    1    1.000000
   4.44553000E+01    2.60801000E-01 
S    1    1.000000
   1.30290000E+01    6.16462000E-01 
S    1    1.000000
   1.82773000E+00    2.21006000E-01 
SP   3    1.000000
   2.09642000E+01    1.14660000E-01   4.02487000E-02 
   4.80331000E+00    9.19999000E-01   2.37594000E-01 
   1.45933000E+00   -3.03068000E-03   8.15854000E-01 
SP   1    1.000000
   4.83456000E-01    1.00000000E+00   1.00000000E+00 
SP   1    1.000000
   1.45585000E-01    1.00000000E+00   1.00000000E+00 
SP   1    1.000000
   4.38000000E-02    1.00000000E+00   1.00000000E+00 
SP   1    1.000000
   1.31927711E-02    1.00000000E+00   1.00000000E+00 
D    1    1.000000
   6.26000000E-01    1.00000000E+00 

2    0
S    3    1.000000
   3.38650000E+01    2.54938000E-02 
   5.09479000E+00    1.90373000E-01 
   1.15879000E+00    8.52161000E-01 
S    1    1.000000
   3.25840000E-01    1.00000000E+00 
S    1    1.000000
   1.02741000E-01    1.00000000E+00 
S    1    1.000000
   3.60000000E-02    1.00000000E+00 
P    1    1.000000
   7.50000000E-01    1.00000000E+00 

3    0
S    3    1.000000
   3.38650000E+01    2.54938000E-02 
   5.09479000E+00    1.90373000E-01 
   1.15879000E+00    8.52161000E-01 
S    1    1.000000
   3.25840000E-01    1.00000000E+00 
S    1    1.000000
   1.02741000E-01    1.00000000E+00 
S    1    1.000000
   3.60000000E-02    1.00000000E+00 
P    1    1.000000
   7.50000000E-01    1.00000000E+00 

4    0
S    3    1.000000
   3.38650000E+01    2.54938000E-02 
   5.09479000E+00    1.90373000E-01 
   1.15879000E+00    8.52161000E-01 
S    1    1.000000
   3.25840000E-01    1.00000000E+00 
S    1    1.000000
   1.02741000E-01    1.00000000E+00 
S    1    1.000000
   3.60000000E-02    1.00000000E+00 
P    1    1.000000
   7.50000000E-01    1.00000000E+00 

5    0
S    1    1.000000
   4.56324000E+03    1.96665000E-03 
S    1    1.000000
   6.82024000E+02    1.52306000E-02 
S    1    1.000000
   1.54973000E+02    7.61269000E-02 
S    1    1.000000
   4.44553000E+01    2.60801000E-01 
S    1    1.000000
   1.30290000E+01    6.16462000E-01 
S    1    1.000000
   1.82773000E+00    2.21006000E-01 
SP   3    1.000000
   2.09642000E+01    1.14660000E-01   4.02487000E-02 
   4.80331000E+00    9.19999000E-01   2.37594000E-01 
   1.45933000E+00   -3.03068000E-03   8.15854000E-01 
SP   1    1.000000
   4.83456000E-01    1.00000000E+00   1.00000000E+00 
SP   1    1.000000
   1.45585000E-01    1.00000000E+00   1.00000000E+00 
SP   1    1.000000
   4.38000000E-02    1.00000000E+00   1.00000000E+00 
SP   1    1.000000
   1.31927711E-02    1.00000000E+00   1.00000000E+00 
D    1    1.000000
   6.26000000E-01    1.00000000E+00 

6    0
S    1    1.000000
   8.58850000E+03    1.89515000E-03 
S    1    1.000000
   1.29723000E+03    1.43859000E-02 
S    1    1.000000
   2.99296000E+02    7.07320000E-02 
S    1    1.000000
   8.73771000E+01    2.40001000E-01 
S    1    1.000000
   2.56789000E+01    5.94797000E-01 
S    1    1.000000
   3.74004000E+00    2.80802000E-01 
SP   3    1.000000
   4.21175000E+01    1.13889000E-01   3.65114000E-02 
   9.62837000E+00    9.20811000E-01   2.37153000E-01 
   2.85332000E+00   -3.27447000E-03   8.19702000E-01 
SP   1    1.000000
   9.05661000E-01    1.00000000E+00   1.00000000E+00 
SP   1    1.000000
   2.55611000E-01    1.00000000E+00   1.00000000E+00 
SP   1    1.000000
   8.45000000E-02    1.00000000E+00   1.00000000E+00 
SP   1    1.000000
   2.54518072E-02    1.00000000E+00   1.00000000E+00 
D    1    1.000000
   1.29200000E+00    1.00000000E+00 

7    0
S    1    1.000000
   4.56324000E+03    1.96665000E-03 
S    1    1.000000
   6.82024000E+02    1.52306000E-02 
S    1    1.000000
   1.54973000E+02    7.61269000E-02 
S    1    1.000000
   4.44553000E+01    2.60801000E-01 
S    1    1.000000
   1.30290000E+01    6.16462000E-01 
S    1    1.000000
   1.82773000E+00    2.21006000E-01 
SP   3    1.000000
   2.09642000E+01    1.14660000E-01   4.02487000E-02 
   4.80331000E+00    9.19999000E-01   2.37594000E-01 
   1.45933000E+00   -3.03068000E-03   8.15854000E-01 
SP   1    1.000000
   4.83456000E-01    1.00000000E+00   1.00000000E+00 
SP   1    1.000000
   1.45585000E-01    1.00000000E+00   1.00000000E+00 
SP   1    1.000000
   4.38000000E-02    1.00000000E+00   1.00000000E+00 
SP   1    1.000000
   1.31927711E-02    1.00000000E+00   1.00000000E+00 
D    1    1.000000
   6.26000000E-01    1.00000000E+00 

8    0
S    1    1.000000
   8.58850000E+03    1.89515000E-03 
S    1    1.000000
   1.29723000E+03    1.43859000E-02 
S    1    1.000000
   2.99296000E+02    7.07320000E-02 
S    1    1.000000
   8.73771000E+01    2.40001000E-01 
S    1    1.000000
   2.56789000E+01    5.94797000E-01 
S    1    1.000000
   3.74004000E+00    2.80802000E-01 
SP   3    1.000000
   4.21175000E+01    1.13889000E-01   3.65114000E-02 
   9.62837000E+00    9.20811000E-01   2.37153000E-01 
   2.85332000E+00   -3.27447000E-03   8.19702000E-01 
SP   1    1.000000
   9.05661000E-01    1.00000000E+00   1.00000000E+00 
SP   1    1.000000
   2.55611000E-01    1.00000000E+00   1.00000000E+00 
SP   1    1.000000
   8.45000000E-02    1.00000000E+00   1.00000000E+00 
SP   1    1.000000
   2.54518072E-02    1.00000000E+00   1.00000000E+00 
D    1    1.000000
   1.29200000E+00    1.00000000E+00 

9    0
S    1    1.000000
   6.29348000E+03    1.96979000E-03 
S    1    1.000000
   9.49044000E+02    1.49613000E-02 
S    1    1.000000
   2.18776000E+02    7.35006000E-02 
S    1    1.000000
   6.36916000E+01    2.48937000E-01 
S    1    1.000000
   1.88282000E+01    6.02460000E-01 
S    1    1.000000
   2.72023000E+00    2.56202000E-01 
SP   3    1.000000
   3.06331000E+01    1.11906000E-01   3.83119000E-02 
   7.02614000E+00    9.21666000E-01   2.37403000E-01 
   2.11205000E+00   -2.56919000E-03   8.17592000E-01 
SP   1    1.000000
   6.84009000E-01    1.00000000E+00   1.00000000E+00 
SP   1    1.000000
   2.00878000E-01    1.00000000E+00   1.00000000E+00 
SP   1    1.000000
   6.39000000E-02    1.00000000E+00   1.00000000E+00 
SP   1    1.000000
   1.92469880E-02    1.00000000E+00   1.00000000E+00 
D    1    1.000000
   9.13000000E-01    1.00000000E+00 

10    0
S    1    1.000000
   6.29348000E+03    1.96979000E-03 
S    1    1.000000
   9.49044000E+02    1.49613000E-02 
S    1    1.000000
   2.18776000E+02    7.35006000E-02 
S    1    1.000000
   6.36916000E+01    2.48937000E-01 
S    1    1.000000
   1.88282000E+01    6.02460000E-01 
S    1    1.000000
   2.72023000E+00    2.56202000E-01 
SP   3    1.000000
   3.06331000E+01    1.11906000E-01   3.83119000E-02 
   7.02614000E+00    9.21666000E-01   2.37403000E-01 
   2.11205000E+00   -2.56919000E-03   8.17592000E-01 
SP   1    1.000000
   6.84009000E-01    1.00000000E+00   1.00000000E+00 
SP   1    1.000000
   2.00878000E-01    1.00000000E+00   1.00000000E+00 
SP   1    1.000000
   6.39000000E-02    1.00000000E+00   1.00000000E+00 
SP   1    1.000000
   1.92469880E-02    1.00000000E+00   1.00000000E+00 
D    1    1.000000
   9.13000000E-01    1.00000000E+00 

11    0
S    1    1.000000
   4.56324000E+03    1.96665000E-03 
S    1    1.000000
   6.82024000E+02    1.52306000E-02 
S    1    1.000000
   1.54973000E+02    7.61269000E-02 
S    1    1.000000
   4.44553000E+01    2.60801000E-01 
S    1    1.000000
   1.30290000E+01    6.16462000E-01 
S    1    1.000000
   1.82773000E+00    2.21006000E-01 
SP   3    1.000000
   2.09642000E+01    1.14660000E-01   4.02487000E-02 
   4.80331000E+00    9.19999000E-01   2.37594000E-01 
   1.45933000E+00   -3.03068000E-03   8.15854000E-01 
SP   1    1.000000
   4.83456000E-01    1.00000000E+00   1.00000000E+00 
SP   1    1.000000
   1.45585000E-01    1.00000000E+00   1.00000000E+00 
SP   1    1.000000
   4.38000000E-02    1.00000000E+00   1.00000000E+00 
SP   1    1.000000
   1.31927711E-02    1.00000000E+00   1.00000000E+00 
D    1    1.000000
   6.26000000E-01    1.00000000E+00 

12    0
S    3    1.000000
   3.38650000E+01    2.54938000E-02 
   5.09479000E+00    1.90373000E-01 
   1.15879000E+00    8.52161000E-01 
S    1    1.000000
   3.25840000E-01    1.00000000E+00 
S    1    1.000000
   1.02741000E-01    1.00000000E+00 
S    1    1.000000
   3.60000000E-02    1.00000000E+00 
P    1    1.000000
   7.50000000E-01    1.00000000E+00 

[MO]
Sym=X
Ene=0.263725
Spin=Alpha
Occup=1
1    -8.12065771e-10
2    1.71955421e-09
3    -5.01157183e-08
4    5.91043722e-08
5    -1.66917257e-06
6    -6.65534952e-06
7    3.33399656e-06
8    1.62077729e-06
9    -6.18379155e-07
10    7.76215111e-16
11    1.94564402e-05
12    -1.66744732e-05
13    5.42913705e-06
14    2.53427235e-15
15    -0.000149558397
16    -2.66008219e-05
17    -0.000148529808
18    -6.01015485e-16
19    -0.00288051616
20    5.66447678e-06
21    -0.00121479103
22    4.83891466e-14
23    -0.000314827557
24    -0.000236393018
25    0.000201689882
26    9.29431986e-15
27    -7.60742934e-06
28    -1.04508676e-16
29    2.71634337e-06
30    -4.37330111e-16
31    -4.78496319e-06
32    6.8786487e-06
33    -1.15023298e-05
34    -2.50965259e-05
35    9.54235441e-05
36    3.36459607e-06
37    -8.15542744e-06
38    1.05958204e-15
39    1.26347823e-06
40    -1.96013517e-05
41    -0.000111709194
42    -0.000764831113
43    -1.12418288e-06
44    -3.5764729e-06
45    2.58311469e-16
46    5.55357333e-06
47    9.54594025e-07
48    -9.7563592e-05
49    0.000125609297
50    8.55112018e-06
51    4.54158474e-07
52    -3.14317348e-16
53    -8.93229705e-09
54    -1.29003509e-07
55    -2.76494541e-07
56    -3.22626565e-06
57    -7.12142074e-06
58    -0.000120337561
59    -1.44572651e-05
60    -3.51003267e-05
61    2.16321976e-05
62    2.46172277e-15
63    0.000446175161
64    -0.000453436129
65    0.000272766629
66    -9.88180444e-16
67    -0.000890638138
68    0.000469231038
69    -0.000285815635
70    6.32516549e-15
71    -0.0021492145
72    0.00270420036
73    -0.00173889463
74    4.94854104e-14
75    0.00139322323
76    0.000107620978
77    0.000231998117
78    5.72933082e-15
79    -0.000243927386
80    -6.14367354e-16
81    -8.00363663e-05
82    -1.09905082e-15
83    0.000127609548
84    0.00104384942
85    0.00794069104
86    0.0389355522
87    0.132509626
88    0.327964765
89    0.155520529
90    0.471287968
91    0.0015931001
92    -0.000975079213
93    9.90721619e-16
94    0.00493927675
95    -0.000742635863
96    0.000452855509
97    7.10572113e-16
98    -0.000586101367
99    0.000409133074
100    -0.000250300577
101    5.11084663e-15
102    0.00323876932
103    0.000235866245
104    -0.000142249904
105    -5.64785488e-15
106    0.00755018765
107    0.00139646486
108    -0.000692609512
109    4.63031205e-15
110    8.60937101e-05
111    -7.73348862e-16
112    -7.52542433e-05
113    1.85378383e-16
114    -4.74859036e-05
115    -8.0967392e-10
116    1.93824602e-09
117    -5.04914848e-08
118    6.49253493e-08
119    -1.66920498e-06
120    -6.48005564e-06
121    3.31691348e-06
122    2.03565259e-06
123    5.52103998e-07
124    -1.89042894e-15
125    1.65546747e-05
126    -1.12153632e-05
127    2.65242191e-06
128    1.00817421e-15
129    6.07906325e-05
130    0.000236903072
131    0.000157483452
132    -9.57253996e-15
133    -0.00186127384
134    0.0011184933
135    0.000398896038
136    6.86356486e-14
137    -0.000408252729
138    0.000173748859
139    -0.000252743862
140    4.49561871e-14
141    3.87405508e-06
142    -9.11587606e-16
143    -5.26660491e-07
144    -1.14121265e-15
145    5.58434268e-06
146    2.76380695e-07
147    2.10681089e-06
148    1.02990584e-05
149    3.51700928e-05
150    8.59841798e-05
151    3.75221212e-05
152    0.00012718948
153    1.25825991e-06
154    -4.40271911e-07
155    -7.18646596e-16
156    1.28094204e-05
157    -5.3565845e-06
158    -1.65481683e-07
159    -2.90616574e-15
160    -9.28122412e-05
161    5.59531155e-05
162    2.4061654e-05
163    1.10820636e-15
164    -0.000454726886
165    4.22426985e-05
166    7.21336424e-05
167    -9.36143773e-15
168    -0.0023816574
169    0.000382865019
170    7.92926481e-05
171    -1.5237521e-14
172    -1.63568754e-06
173    -1.66471953e-16
174    1.23923631e-06
175    -5.2209244e-17
176    -4.56671414e-07
177    -1.313692e-09
178    2.50825928e-08
179    -1.26581116e-07
180    5.51785057e-07
181    -6.80751422e-06
182    -2.76259711e-05
183    1.88757293e-05
184    1.67315328e-05
185    -1.49250985e-06
186    1.76918768e-15
187    3.92013512e-05
188    -5.50370264e-05
189    -5.58731443e-07
190    -5.76625216e-15
191    2.09705899e-05
192    1.33564905e-05
193    -1.89998201e-05
194    1.40745724e-14
195    0.000191288144
196    -3.86906266e-05
197    0.000213157031
198    -4.14610217e-14
199    -0.00142456999
200    0.00233460252
201    -7.26485052e-05
202    -4.41676598e-14
203    3.89758433e-06
204    -3.6959757e-16
205    -4.50510298e-06
206    -1.22055172e-15
207    3.15355164e-05
208    -1.31342537e-09
209    2.76152258e-08
210    -1.32269939e-07
211    6.03512004e-07
212    -7.26535279e-06
213    -2.95965485e-05
214    2.02201087e-05
215    8.70005313e-06
216    -1.47643019e-05
217    3.01567982e-15
218    4.43347519e-05
219    -2.37683086e-05
220    5.12881604e-05
221    -1.79797982e-15
222    -7.98537886e-06
223    7.68283231e-06
224    -1.93183598e-05
225    1.58948398e-14
226    0.000193978908
227    -5.90354719e-05
228    -1.38392625e-05
229    -3.69194096e-14
230    -0.0019212819
231    0.00037952852
232    -0.000770602438
233    -1.41718665e-14
234    -2.04203764e-05
235    2.09250445e-16
236    -4.10641639e-06
237    2.54954735e-17
238    -2.38394082e-05
239    3.56227712e-11
240    2.82609722e-10
241    1.4151742e-09
242    1.8418653e-09
243    -6.68683292e-08
244    -1.0836172e-06
245    2.93307632e-07
246    1.28413913e-06
247    -5.43588159e-08
248    4.49609929e-16
249    -6.0301542e-08
250    -1.35014419e-05
251    1.07275747e-06
252    5.41694518e-16
253    0.000236754458
254    -0.000144770456
255    7.9328669e-05
256    5.27789865e-15
257    0.00307373758
258    -0.000723041588
259    0.0004131622
260    -5.2866642e-14
261    -0.000115123943
262    -0.000110598646
263    -0.000282289311
264    -2.88223249e-14
265    5.78842222e-06
266    -3.09044861e-16
267    1.28831262e-06
268    -6.45541831e-16
269    2.95022106e-07
270    5.95541602e-07
271    2.44280358e-05
272    5.53172862e-05
273    6.95939768e-05
274    -3.63024487e-06
275    2.51814603e-06
276    -1.18864082e-16
[5D]