[Molden Format]
[Atoms] (Angs)
  C      1    6     -0.00714236     -1.70213747     -0.00000000
  H      2    1     -2.06882847     -1.44022412      0.00000000
  H      3    1     -0.12337987     -2.77567521      0.00000000
  H      4    1      0.04651892      1.98813947     -0.00000000
  C      5    6     -1.21953563      0.40211669      0.00000000
  O      6    8     -2.25921553      1.03043814      0.00000000
  C      7    6      1.28797806      0.34644937     -0.00000000
  O      8    8      2.31273661      1.00537216     -0.00000000
  N      9    7      0.03446295      0.97739857     -0.00000000
  N     10    7     -1.17287765     -0.98229824      0.00000000
  C     11    6      1.20107039     -1.10433419     -0.00000000
  H     12    1      2.11220096     -1.67699125     -0.00000000
[GTO]
1    0
S    1    1.000000
   4.56324000E+03    1.96665000E-03 
S    1    1.000000
   6.82024000E+02    1.52306000E-02 
S    1    1.000000
   1.54973000E+02    7.61269000E-02 
S    1    1.000000
   4.44553000E+01    2.60801000E-01 
S    1    1.000000
   1.30290000E+01    6.16462000E-01 
S    1    1.000000
   1.82773000E+00    2.21006000E-01 
SP   3    1.000000
   2.09642000E+01    1.14660000E-01   4.02487000E-02 
   4.80331000E+00    9.19999000E-01   2.37594000E-01 
   1.45933000E+00   -3.03068000E-03   8.15854000E-01 
SP   1    1.000000
   4.83456000E-01    1.00000000E+00   1.00000000E+00 
SP   1    1.000000
   1.45585000E-01    1.00000000E+00   1.00000000E+00 
SP   1    1.000000
   4.38000000E-02    1.00000000E+00   1.00000000E+00 
SP   1    1.000000
   1.31927711E-02    1.00000000E+00   1.00000000E+00 
D    1    1.000000
   6.26000000E-01    1.00000000E+00 

2    0
S    3    1.000000
   3.38650000E+01    2.54938000E-02 
   5.09479000E+00    1.90373000E-01 
   1.15879000E+00    8.52161000E-01 
S    1    1.000000
   3.25840000E-01    1.00000000E+00 
S    1    1.000000
   1.02741000E-01    1.00000000E+00 
S    1    1.000000
   3.60000000E-02    1.00000000E+00 
P    1    1.000000
   7.50000000E-01    1.00000000E+00 

3    0
S    3    1.000000
   3.38650000E+01    2.54938000E-02 
   5.09479000E+00    1.90373000E-01 
   1.15879000E+00    8.52161000E-01 
S    1    1.000000
   3.25840000E-01    1.00000000E+00 
S    1    1.000000
   1.02741000E-01    1.00000000E+00 
S    1    1.000000
   3.60000000E-02    1.00000000E+00 
P    1    1.000000
   7.50000000E-01    1.00000000E+00 

4    0
S    3    1.000000
   3.38650000E+01    2.54938000E-02 
   5.09479000E+00    1.90373000E-01 
   1.15879000E+00    8.52161000E-01 
S    1    1.000000
   3.25840000E-01    1.00000000E+00 
S    1    1.000000
   1.02741000E-01    1.00000000E+00 
S    1    1.000000
   3.60000000E-02    1.00000000E+00 
P    1    1.000000
   7.50000000E-01    1.00000000E+00 

5    0
S    1    1.000000
   4.56324000E+03    1.96665000E-03 
S    1    1.000000
   6.82024000E+02    1.52306000E-02 
S    1    1.000000
   1.54973000E+02    7.61269000E-02 
S    1    1.000000
   4.44553000E+01    2.60801000E-01 
S    1    1.000000
   1.30290000E+01    6.16462000E-01 
S    1    1.000000
   1.82773000E+00    2.21006000E-01 
SP   3    1.000000
   2.09642000E+01    1.14660000E-01   4.02487000E-02 
   4.80331000E+00    9.19999000E-01   2.37594000E-01 
   1.45933000E+00   -3.03068000E-03   8.15854000E-01 
SP   1    1.000000
   4.83456000E-01    1.00000000E+00   1.00000000E+00 
SP   1    1.000000
   1.45585000E-01    1.00000000E+00   1.00000000E+00 
SP   1    1.000000
   4.38000000E-02    1.00000000E+00   1.00000000E+00 
SP   1    1.000000
   1.31927711E-02    1.00000000E+00   1.00000000E+00 
D    1    1.000000
   6.26000000E-01    1.00000000E+00 

6    0
S    1    1.000000
   8.58850000E+03    1.89515000E-03 
S    1    1.000000
   1.29723000E+03    1.43859000E-02 
S    1    1.000000
   2.99296000E+02    7.07320000E-02 
S    1    1.000000
   8.73771000E+01    2.40001000E-01 
S    1    1.000000
   2.56789000E+01    5.94797000E-01 
S    1    1.000000
   3.74004000E+00    2.80802000E-01 
SP   3    1.000000
   4.21175000E+01    1.13889000E-01   3.65114000E-02 
   9.62837000E+00    9.20811000E-01   2.37153000E-01 
   2.85332000E+00   -3.27447000E-03   8.19702000E-01 
SP   1    1.000000
   9.05661000E-01    1.00000000E+00   1.00000000E+00 
SP   1    1.000000
   2.55611000E-01    1.00000000E+00   1.00000000E+00 
SP   1    1.000000
   8.45000000E-02    1.00000000E+00   1.00000000E+00 
SP   1    1.000000
   2.54518072E-02    1.00000000E+00   1.00000000E+00 
D    1    1.000000
   1.29200000E+00    1.00000000E+00 

7    0
S    1    1.000000
   4.56324000E+03    1.96665000E-03 
S    1    1.000000
   6.82024000E+02    1.52306000E-02 
S    1    1.000000
   1.54973000E+02    7.61269000E-02 
S    1    1.000000
   4.44553000E+01    2.60801000E-01 
S    1    1.000000
   1.30290000E+01    6.16462000E-01 
S    1    1.000000
   1.82773000E+00    2.21006000E-01 
SP   3    1.000000
   2.09642000E+01    1.14660000E-01   4.02487000E-02 
   4.80331000E+00    9.19999000E-01   2.37594000E-01 
   1.45933000E+00   -3.03068000E-03   8.15854000E-01 
SP   1    1.000000
   4.83456000E-01    1.00000000E+00   1.00000000E+00 
SP   1    1.000000
   1.45585000E-01    1.00000000E+00   1.00000000E+00 
SP   1    1.000000
   4.38000000E-02    1.00000000E+00   1.00000000E+00 
SP   1    1.000000
   1.31927711E-02    1.00000000E+00   1.00000000E+00 
D    1    1.000000
   6.26000000E-01    1.00000000E+00 

8    0
S    1    1.000000
   8.58850000E+03    1.89515000E-03 
S    1    1.000000
   1.29723000E+03    1.43859000E-02 
S    1    1.000000
   2.99296000E+02    7.07320000E-02 
S    1    1.000000
   8.73771000E+01    2.40001000E-01 
S    1    1.000000
   2.56789000E+01    5.94797000E-01 
S    1    1.000000
   3.74004000E+00    2.80802000E-01 
SP   3    1.000000
   4.21175000E+01    1.13889000E-01   3.65114000E-02 
   9.62837000E+00    9.20811000E-01   2.37153000E-01 
   2.85332000E+00   -3.27447000E-03   8.19702000E-01 
SP   1    1.000000
   9.05661000E-01    1.00000000E+00   1.00000000E+00 
SP   1    1.000000
   2.55611000E-01    1.00000000E+00   1.00000000E+00 
SP   1    1.000000
   8.45000000E-02    1.00000000E+00   1.00000000E+00 
SP   1    1.000000
   2.54518072E-02    1.00000000E+00   1.00000000E+00 
D    1    1.000000
   1.29200000E+00    1.00000000E+00 

9    0
S    1    1.000000
   6.29348000E+03    1.96979000E-03 
S    1    1.000000
   9.49044000E+02    1.49613000E-02 
S    1    1.000000
   2.18776000E+02    7.35006000E-02 
S    1    1.000000
   6.36916000E+01    2.48937000E-01 
S    1    1.000000
   1.88282000E+01    6.02460000E-01 
S    1    1.000000
   2.72023000E+00    2.56202000E-01 
SP   3    1.000000
   3.06331000E+01    1.11906000E-01   3.83119000E-02 
   7.02614000E+00    9.21666000E-01   2.37403000E-01 
   2.11205000E+00   -2.56919000E-03   8.17592000E-01 
SP   1    1.000000
   6.84009000E-01    1.00000000E+00   1.00000000E+00 
SP   1    1.000000
   2.00878000E-01    1.00000000E+00   1.00000000E+00 
SP   1    1.000000
   6.39000000E-02    1.00000000E+00   1.00000000E+00 
SP   1    1.000000
   1.92469880E-02    1.00000000E+00   1.00000000E+00 
D    1    1.000000
   9.13000000E-01    1.00000000E+00 

10    0
S    1    1.000000
   6.29348000E+03    1.96979000E-03 
S    1    1.000000
   9.49044000E+02    1.49613000E-02 
S    1    1.000000
   2.18776000E+02    7.35006000E-02 
S    1    1.000000
   6.36916000E+01    2.48937000E-01 
S    1    1.000000
   1.88282000E+01    6.02460000E-01 
S    1    1.000000
   2.72023000E+00    2.56202000E-01 
SP   3    1.000000
   3.06331000E+01    1.11906000E-01   3.83119000E-02 
   7.02614000E+00    9.21666000E-01   2.37403000E-01 
   2.11205000E+00   -2.56919000E-03   8.17592000E-01 
SP   1    1.000000
   6.84009000E-01    1.00000000E+00   1.00000000E+00 
SP   1    1.000000
   2.00878000E-01    1.00000000E+00   1.00000000E+00 
SP   1    1.000000
   6.39000000E-02    1.00000000E+00   1.00000000E+00 
SP   1    1.000000
   1.92469880E-02    1.00000000E+00   1.00000000E+00 
D    1    1.000000
   9.13000000E-01    1.00000000E+00 

11    0
S    1    1.000000
   4.56324000E+03    1.96665000E-03 
S    1    1.000000
   6.82024000E+02    1.52306000E-02 
S    1    1.000000
   1.54973000E+02    7.61269000E-02 
S    1    1.000000
   4.44553000E+01    2.60801000E-01 
S    1    1.000000
   1.30290000E+01    6.16462000E-01 
S    1    1.000000
   1.82773000E+00    2.21006000E-01 
SP   3    1.000000
   2.09642000E+01    1.14660000E-01   4.02487000E-02 
   4.80331000E+00    9.19999000E-01   2.37594000E-01 
   1.45933000E+00   -3.03068000E-03   8.15854000E-01 
SP   1    1.000000
   4.83456000E-01    1.00000000E+00   1.00000000E+00 
SP   1    1.000000
   1.45585000E-01    1.00000000E+00   1.00000000E+00 
SP   1    1.000000
   4.38000000E-02    1.00000000E+00   1.00000000E+00 
SP   1    1.000000
   1.31927711E-02    1.00000000E+00   1.00000000E+00 
D    1    1.000000
   6.26000000E-01    1.00000000E+00 

12    0
S    3    1.000000
   3.38650000E+01    2.54938000E-02 
   5.09479000E+00    1.90373000E-01 
   1.15879000E+00    8.52161000E-01 
S    1    1.000000
   3.25840000E-01    1.00000000E+00 
S    1    1.000000
   1.02741000E-01    1.00000000E+00 
S    1    1.000000
   3.60000000E-02    1.00000000E+00 
P    1    1.000000
   7.50000000E-01    1.00000000E+00 

[MO]
Sym=X
Ene=0.596321
Spin=Alpha
Occup=1
1    -1.6927454e-09
2    1.15895572e-08
3    -1.2209272e-07
4    2.9841187e-07
5    -4.76188061e-06
6    -1.86027066e-05
7    1.06945238e-05
8    -9.79477876e-07
9    -2.4504056e-06
10    -6.92243896e-17
11    4.97115998e-05
12    1.37430855e-05
13    1.53480591e-05
14    -8.39246308e-16
15    -0.000334575694
16    -2.98521492e-05
17    -0.000200272508
18    -5.08092941e-15
19    0.00206776488
20    0.000440772634
21    -0.0002312216
22    4.94817544e-14
23    0.000666296869
24    0.000276577566
25    4.8061178e-05
26    -1.07350178e-13
27    1.41491652e-05
28    -1.33269998e-17
29    3.57122774e-06
30    -1.50745187e-16
31    -7.91025196e-06
32    3.54157299e-07
33    2.50802156e-05
34    -7.42774085e-06
35    0.000122404658
36    7.89785191e-07
37    1.90488916e-06
38    -2.33292654e-16
39    -1.49563914e-06
40    -7.41289262e-06
41    -0.000162175916
42    -0.000299725297
43    3.05130679e-06
44    -3.13696551e-06
45    1.57354817e-16
46    7.15835373e-06
47    -3.46517818e-08
48    7.51838178e-06
49    0.000118643167
50    -5.13609743e-06
51    -1.04358839e-06
52    -5.31316047e-17
53    -9.14885816e-10
54    2.02144235e-09
55    -5.66311291e-08
56    6.92788689e-08
57    -1.87520017e-06
58    -7.34678627e-06
59    3.74207835e-06
60    -5.97846793e-07
61    5.9427174e-07
62    8.1048586e-16
63    2.10370116e-05
64    5.17804587e-06
65    2.4376655e-06
66    -2.84240518e-15
67    -4.55879598e-05
68    -0.000266429239
69    0.000111088607
70    3.51539638e-15
71    -0.00098437919
72    -0.00115215816
73    0.000125610685
74    1.82269339e-14
75    -0.00107134042
76    -0.000245184757
77    -0.000437129468
78    5.26034085e-14
79    -3.08769696e-06
80    4.95579786e-16
81    1.50532124e-06
82    3.41619937e-16
83    4.98936337e-06
84    -1.25353032e-07
85    -9.5063184e-07
86    -4.68235853e-06
87    -1.58549372e-05
88    -3.99641832e-05
89    -2.11954254e-05
90    -5.49432165e-05
91    -1.99268517e-06
92    -4.7143528e-07
93    -6.25957221e-16
94    7.98813756e-06
95    5.94638356e-06
96    1.17311671e-06
97    1.45090601e-15
98    -7.74563935e-05
99    -4.97061802e-05
100    1.93944236e-05
101    -4.88850284e-15
102    -0.000452854072
103    -2.56798855e-05
104    8.50939933e-05
105    6.23928085e-15
106    -0.00249026091
107    -0.000389376299
108    8.60042513e-05
109    -2.06970895e-14
110    1.68899364e-06
111    5.76098106e-17
112    1.13123659e-06
113    3.33555865e-16
114    -5.94005402e-08
115    -7.87183819e-09
116    -1.20479214e-07
117    -2.34437005e-07
118    -3.05082479e-06
119    -6.34061473e-06
120    -0.000112876841
121    -1.47015818e-05
122    3.22208437e-05
123    2.49241314e-05
124    -4.4617585e-16
125    0.000416066831
126    0.000433491303
127    0.000287155822
128    3.15450596e-15
129    -0.00080381005
130    -0.000327050463
131    -0.000212213838
132    -3.99166109e-15
133    -0.000396223115
134    -0.00317692105
135    -0.001661007
136    7.29835476e-14
137    0.000190006331
138    -0.000439892601
139    0.000744623248
140    -6.41128641e-14
141    0.000248846369
142    5.74221563e-16
143    -7.3660232e-05
144    3.98148358e-16
145    0.000112528983
146    0.00104385845
147    0.00794076072
148    0.0389358874
149    0.132510476
150    0.327965296
151    0.155500082
152    0.471306905
153    -0.00155769821
154    -0.000937586946
155    1.08722252e-15
156    0.00493804449
157    0.000723774836
158    0.000434261009
159    -5.6539705e-16
160    -0.000639077157
161    -0.000388906569
162    -0.000223593884
163    6.57333182e-15
164    0.00302022792
165    -0.000151008064
166    -0.000147243536
167    -1.3528256e-14
168    0.00642985759
169    -0.00119551076
170    -0.000375807314
171    -4.18808161e-15
172    -9.17402504e-05
173    6.04861012e-17
174    -0.000107305052
175    -1.79863258e-16
176    -4.55158242e-05
177    -7.81960465e-10
178    2.43552035e-08
179    -9.53847046e-08
180    5.21615652e-07
181    -5.8157821e-06
182    -2.40084792e-05
183    1.69492161e-05
184    -1.73785579e-05
185    1.30751861e-06
186    7.63760705e-16
187    2.4075322e-05
188    5.70553714e-05
189    -8.66662907e-06
190    -4.42445278e-16
191    0.000123096328
192    -4.83547148e-05
193    -5.73107638e-05
194    6.74947058e-15
195    -0.000144649865
196    -9.83778986e-05
197    9.72696294e-05
198    -3.01975744e-14
199    -0.00217525223
200    -0.00283190974
201    5.58960424e-05
202    -2.77073425e-14
203    -1.23815512e-05
204    6.30382542e-16
205    -6.28082461e-06
206    2.57056772e-16
207    2.8421516e-05
208    -1.69200194e-10
209    3.71446907e-09
210    -1.79162444e-08
211    8.08442029e-08
212    -9.33868504e-07
213    -3.6800606e-06
214    2.35881193e-06
215    -5.14931966e-07
216    5.7947974e-07
217    3.43181266e-16
218    2.61782243e-06
219    4.08722262e-06
220    -2.62271159e-06
221    -3.47702771e-15
222    0.000117882065
223    9.70231027e-05
224    3.27112803e-05
225    5.55724433e-15
226    0.000667961865
227    0.000250179492
228    3.27480148e-05
229    -3.14732113e-14
230    2.51857691e-05
231    0.000256200953
232    -0.000121895216
233    9.76469124e-15
234    -4.01439661e-06
235    8.1544066e-17
236    4.81986438e-07
237    2.40184252e-16
238    -1.4149973e-06
239    1.39435321e-09
240    1.86091286e-08
241    3.94094197e-08
242    3.42911012e-07
243    -1.34293599e-06
244    -1.03357591e-05
245    7.16956497e-06
246    -7.90840674e-06
247    -1.38878587e-05
248    9.59348222e-16
249    7.68675169e-06
250    2.12714886e-05
251    7.0629736e-05
252    -3.96534988e-15
253    0.000178544078
254    -0.000131024503
255    -2.15905728e-05
256    1.08982388e-14
257    -0.00348456527
258    0.0017036345
259    -7.36702668e-05
260    -7.57479532e-14
261    0.000497288306
262    0.000309622045
263    0.000174684121
264    1.22024227e-13
265    3.97215691e-05
266    2.03856535e-16
267    2.12911074e-08
268    -1.97182905e-16
269    -3.96681081e-05
270    5.69226478e-06
271    5.35408165e-05
272    -6.90862452e-05
273    -0.000960514062
274    -1.4718511e-05
275    6.0403362e-06
276    -1.37783667e-16
[5D]