[Molden Format]
[Atoms] (Angs)
  C      1    6     -0.00714236     -1.70213747     -0.00000000
  H      2    1     -2.06882847     -1.44022412      0.00000000
  H      3    1     -0.12337987     -2.77567521      0.00000000
  H      4    1      0.04651892      1.98813947     -0.00000000
  C      5    6     -1.21953563      0.40211669      0.00000000
  O      6    8     -2.25921553      1.03043814      0.00000000
  C      7    6      1.28797806      0.34644937     -0.00000000
  O      8    8      2.31273661      1.00537216     -0.00000000
  N      9    7      0.03446295      0.97739857     -0.00000000
  N     10    7     -1.17287765     -0.98229824      0.00000000
  C     11    6      1.20107039     -1.10433419     -0.00000000
  H     12    1      2.11220096     -1.67699125     -0.00000000
[GTO]
1    0
S    1    1.000000
   4.56324000E+03    1.96665000E-03 
S    1    1.000000
   6.82024000E+02    1.52306000E-02 
S    1    1.000000
   1.54973000E+02    7.61269000E-02 
S    1    1.000000
   4.44553000E+01    2.60801000E-01 
S    1    1.000000
   1.30290000E+01    6.16462000E-01 
S    1    1.000000
   1.82773000E+00    2.21006000E-01 
SP   3    1.000000
   2.09642000E+01    1.14660000E-01   4.02487000E-02 
   4.80331000E+00    9.19999000E-01   2.37594000E-01 
   1.45933000E+00   -3.03068000E-03   8.15854000E-01 
SP   1    1.000000
   4.83456000E-01    1.00000000E+00   1.00000000E+00 
SP   1    1.000000
   1.45585000E-01    1.00000000E+00   1.00000000E+00 
SP   1    1.000000
   4.38000000E-02    1.00000000E+00   1.00000000E+00 
SP   1    1.000000
   1.31927711E-02    1.00000000E+00   1.00000000E+00 
D    1    1.000000
   6.26000000E-01    1.00000000E+00 

2    0
S    3    1.000000
   3.38650000E+01    2.54938000E-02 
   5.09479000E+00    1.90373000E-01 
   1.15879000E+00    8.52161000E-01 
S    1    1.000000
   3.25840000E-01    1.00000000E+00 
S    1    1.000000
   1.02741000E-01    1.00000000E+00 
S    1    1.000000
   3.60000000E-02    1.00000000E+00 
P    1    1.000000
   7.50000000E-01    1.00000000E+00 

3    0
S    3    1.000000
   3.38650000E+01    2.54938000E-02 
   5.09479000E+00    1.90373000E-01 
   1.15879000E+00    8.52161000E-01 
S    1    1.000000
   3.25840000E-01    1.00000000E+00 
S    1    1.000000
   1.02741000E-01    1.00000000E+00 
S    1    1.000000
   3.60000000E-02    1.00000000E+00 
P    1    1.000000
   7.50000000E-01    1.00000000E+00 

4    0
S    3    1.000000
   3.38650000E+01    2.54938000E-02 
   5.09479000E+00    1.90373000E-01 
   1.15879000E+00    8.52161000E-01 
S    1    1.000000
   3.25840000E-01    1.00000000E+00 
S    1    1.000000
   1.02741000E-01    1.00000000E+00 
S    1    1.000000
   3.60000000E-02    1.00000000E+00 
P    1    1.000000
   7.50000000E-01    1.00000000E+00 

5    0
S    1    1.000000
   4.56324000E+03    1.96665000E-03 
S    1    1.000000
   6.82024000E+02    1.52306000E-02 
S    1    1.000000
   1.54973000E+02    7.61269000E-02 
S    1    1.000000
   4.44553000E+01    2.60801000E-01 
S    1    1.000000
   1.30290000E+01    6.16462000E-01 
S    1    1.000000
   1.82773000E+00    2.21006000E-01 
SP   3    1.000000
   2.09642000E+01    1.14660000E-01   4.02487000E-02 
   4.80331000E+00    9.19999000E-01   2.37594000E-01 
   1.45933000E+00   -3.03068000E-03   8.15854000E-01 
SP   1    1.000000
   4.83456000E-01    1.00000000E+00   1.00000000E+00 
SP   1    1.000000
   1.45585000E-01    1.00000000E+00   1.00000000E+00 
SP   1    1.000000
   4.38000000E-02    1.00000000E+00   1.00000000E+00 
SP   1    1.000000
   1.31927711E-02    1.00000000E+00   1.00000000E+00 
D    1    1.000000
   6.26000000E-01    1.00000000E+00 

6    0
S    1    1.000000
   8.58850000E+03    1.89515000E-03 
S    1    1.000000
   1.29723000E+03    1.43859000E-02 
S    1    1.000000
   2.99296000E+02    7.07320000E-02 
S    1    1.000000
   8.73771000E+01    2.40001000E-01 
S    1    1.000000
   2.56789000E+01    5.94797000E-01 
S    1    1.000000
   3.74004000E+00    2.80802000E-01 
SP   3    1.000000
   4.21175000E+01    1.13889000E-01   3.65114000E-02 
   9.62837000E+00    9.20811000E-01   2.37153000E-01 
   2.85332000E+00   -3.27447000E-03   8.19702000E-01 
SP   1    1.000000
   9.05661000E-01    1.00000000E+00   1.00000000E+00 
SP   1    1.000000
   2.55611000E-01    1.00000000E+00   1.00000000E+00 
SP   1    1.000000
   8.45000000E-02    1.00000000E+00   1.00000000E+00 
SP   1    1.000000
   2.54518072E-02    1.00000000E+00   1.00000000E+00 
D    1    1.000000
   1.29200000E+00    1.00000000E+00 

7    0
S    1    1.000000
   4.56324000E+03    1.96665000E-03 
S    1    1.000000
   6.82024000E+02    1.52306000E-02 
S    1    1.000000
   1.54973000E+02    7.61269000E-02 
S    1    1.000000
   4.44553000E+01    2.60801000E-01 
S    1    1.000000
   1.30290000E+01    6.16462000E-01 
S    1    1.000000
   1.82773000E+00    2.21006000E-01 
SP   3    1.000000
   2.09642000E+01    1.14660000E-01   4.02487000E-02 
   4.80331000E+00    9.19999000E-01   2.37594000E-01 
   1.45933000E+00   -3.03068000E-03   8.15854000E-01 
SP   1    1.000000
   4.83456000E-01    1.00000000E+00   1.00000000E+00 
SP   1    1.000000
   1.45585000E-01    1.00000000E+00   1.00000000E+00 
SP   1    1.000000
   4.38000000E-02    1.00000000E+00   1.00000000E+00 
SP   1    1.000000
   1.31927711E-02    1.00000000E+00   1.00000000E+00 
D    1    1.000000
   6.26000000E-01    1.00000000E+00 

8    0
S    1    1.000000
   8.58850000E+03    1.89515000E-03 
S    1    1.000000
   1.29723000E+03    1.43859000E-02 
S    1    1.000000
   2.99296000E+02    7.07320000E-02 
S    1    1.000000
   8.73771000E+01    2.40001000E-01 
S    1    1.000000
   2.56789000E+01    5.94797000E-01 
S    1    1.000000
   3.74004000E+00    2.80802000E-01 
SP   3    1.000000
   4.21175000E+01    1.13889000E-01   3.65114000E-02 
   9.62837000E+00    9.20811000E-01   2.37153000E-01 
   2.85332000E+00   -3.27447000E-03   8.19702000E-01 
SP   1    1.000000
   9.05661000E-01    1.00000000E+00   1.00000000E+00 
SP   1    1.000000
   2.55611000E-01    1.00000000E+00   1.00000000E+00 
SP   1    1.000000
   8.45000000E-02    1.00000000E+00   1.00000000E+00 
SP   1    1.000000
   2.54518072E-02    1.00000000E+00   1.00000000E+00 
D    1    1.000000
   1.29200000E+00    1.00000000E+00 

9    0
S    1    1.000000
   6.29348000E+03    1.96979000E-03 
S    1    1.000000
   9.49044000E+02    1.49613000E-02 
S    1    1.000000
   2.18776000E+02    7.35006000E-02 
S    1    1.000000
   6.36916000E+01    2.48937000E-01 
S    1    1.000000
   1.88282000E+01    6.02460000E-01 
S    1    1.000000
   2.72023000E+00    2.56202000E-01 
SP   3    1.000000
   3.06331000E+01    1.11906000E-01   3.83119000E-02 
   7.02614000E+00    9.21666000E-01   2.37403000E-01 
   2.11205000E+00   -2.56919000E-03   8.17592000E-01 
SP   1    1.000000
   6.84009000E-01    1.00000000E+00   1.00000000E+00 
SP   1    1.000000
   2.00878000E-01    1.00000000E+00   1.00000000E+00 
SP   1    1.000000
   6.39000000E-02    1.00000000E+00   1.00000000E+00 
SP   1    1.000000
   1.92469880E-02    1.00000000E+00   1.00000000E+00 
D    1    1.000000
   9.13000000E-01    1.00000000E+00 

10    0
S    1    1.000000
   6.29348000E+03    1.96979000E-03 
S    1    1.000000
   9.49044000E+02    1.49613000E-02 
S    1    1.000000
   2.18776000E+02    7.35006000E-02 
S    1    1.000000
   6.36916000E+01    2.48937000E-01 
S    1    1.000000
   1.88282000E+01    6.02460000E-01 
S    1    1.000000
   2.72023000E+00    2.56202000E-01 
SP   3    1.000000
   3.06331000E+01    1.11906000E-01   3.83119000E-02 
   7.02614000E+00    9.21666000E-01   2.37403000E-01 
   2.11205000E+00   -2.56919000E-03   8.17592000E-01 
SP   1    1.000000
   6.84009000E-01    1.00000000E+00   1.00000000E+00 
SP   1    1.000000
   2.00878000E-01    1.00000000E+00   1.00000000E+00 
SP   1    1.000000
   6.39000000E-02    1.00000000E+00   1.00000000E+00 
SP   1    1.000000
   1.92469880E-02    1.00000000E+00   1.00000000E+00 
D    1    1.000000
   9.13000000E-01    1.00000000E+00 

11    0
S    1    1.000000
   4.56324000E+03    1.96665000E-03 
S    1    1.000000
   6.82024000E+02    1.52306000E-02 
S    1    1.000000
   1.54973000E+02    7.61269000E-02 
S    1    1.000000
   4.44553000E+01    2.60801000E-01 
S    1    1.000000
   1.30290000E+01    6.16462000E-01 
S    1    1.000000
   1.82773000E+00    2.21006000E-01 
SP   3    1.000000
   2.09642000E+01    1.14660000E-01   4.02487000E-02 
   4.80331000E+00    9.19999000E-01   2.37594000E-01 
   1.45933000E+00   -3.03068000E-03   8.15854000E-01 
SP   1    1.000000
   4.83456000E-01    1.00000000E+00   1.00000000E+00 
SP   1    1.000000
   1.45585000E-01    1.00000000E+00   1.00000000E+00 
SP   1    1.000000
   4.38000000E-02    1.00000000E+00   1.00000000E+00 
SP   1    1.000000
   1.31927711E-02    1.00000000E+00   1.00000000E+00 
D    1    1.000000
   6.26000000E-01    1.00000000E+00 

12    0
S    3    1.000000
   3.38650000E+01    2.54938000E-02 
   5.09479000E+00    1.90373000E-01 
   1.15879000E+00    8.52161000E-01 
S    1    1.000000
   3.25840000E-01    1.00000000E+00 
S    1    1.000000
   1.02741000E-01    1.00000000E+00 
S    1    1.000000
   3.60000000E-02    1.00000000E+00 
P    1    1.000000
   7.50000000E-01    1.00000000E+00 

[MO]
Sym=X
Ene=6.7e-05
Spin=Alpha
Occup=1
1    2.48285314e-10
2    1.95201162e-09
3    9.86678061e-09
4    3.61598863e-08
5    1.1338156e-07
6    5.70911951e-07
7    1.39746642e-07
8    -1.8444264e-06
9    -1.70409646e-07
10    -7.59558598e-16
11    -3.11512533e-06
12    2.01101472e-05
13    -4.12238968e-07
14    -2.66969885e-15
15    3.8662832e-05
16    1.60558864e-05
17    7.92542402e-05
18    -1.00112135e-15
19    0.00337920634
20    0.000131041416
21    0.00108362294
22    -3.06994702e-14
23    0.000505613672
24    0.000310401357
25    -0.000176918625
26    -4.20653553e-14
27    1.16136426e-05
28    9.5256272e-17
29    -1.47770679e-06
30    3.69215055e-16
31    2.10182037e-06
32    -6.431548e-06
33    1.87008301e-05
34    2.15661993e-05
35    -5.28551517e-05
36    -2.95506708e-06
37    8.34490536e-06
38    -1.07980534e-15
39    -1.66441951e-06
40    1.63452264e-05
41    5.60317886e-05
42    0.000634535788
43    2.01346867e-06
44    2.43004932e-06
45    -1.96933655e-16
46    -3.06544837e-06
47    -9.18484927e-07
48    9.51039939e-05
49    -8.27241808e-05
50    -9.72130837e-06
51    -7.54888004e-07
52    2.82450937e-16
53    8.21088303e-09
54    1.23299985e-07
55    2.45400628e-07
56    3.08942104e-06
57    6.19161579e-06
58    0.000112159553
59    1.49062077e-05
60    3.31931805e-05
61    -2.03869345e-05
62    -2.09008349e-15
63    -0.000417773431
64    0.000432792246
65    -0.000258629581
66    5.99166234e-17
67    0.000832831047
68    -0.000528674712
69    0.000306177034
70    -4.92675294e-15
71    0.0017390841
72    -0.00292814232
73    0.00169245959
74    -4.14159433e-14
75    -0.00165646995
76    -0.000178230457
77    -0.000355916117
78    1.08335741e-14
79    0.000231004058
80    7.37617011e-16
81    7.65755301e-05
82    1.15086716e-15
83    -0.000119804429
84    -0.000992674627
85    -0.0075513972
86    -0.0370267361
87    -0.126013314
88    -0.311886449
89    -0.147896904
90    -0.448182531
91    -0.00151555582
92    0.000927093725
93    -1.13586093e-15
94    -0.00469447229
95    0.00070804101
96    -0.000430274301
97    -2.26625309e-16
98    0.000533371612
99    -0.00040444515
100    0.000244023234
101    -6.37318684e-15
102    -0.00322003547
103    -0.000232242559
104    0.000161609105
105    7.30194118e-15
106    -0.0079505443
107    -0.00144847095
108    0.000685248581
109    -1.08093034e-14
110    -8.13469825e-05
111    7.53238029e-16
112    7.19122421e-05
113    -7.3041067e-17
114    4.51377532e-05
115    -1.66654248e-09
116    -3.91338873e-08
117    -2.4548701e-08
118    -1.0060315e-06
119    -3.75237527e-07
120    -2.87755191e-05
121    -7.70461304e-06
122    8.03721919e-06
123    7.18950258e-06
124    1.65957988e-15
125    0.000113038573
126    0.000144839375
127    8.63582047e-05
128    1.76720036e-17
129    -0.000306603458
130    -0.000326508762
131    -0.000215441405
132    7.86739045e-15
133    0.00164731657
134    -0.00204693837
135    -0.000893440324
136    -4.26783565e-14
137    0.000447033711
138    -0.000301379944
139    0.000470819529
140    -6.25947547e-14
141    7.33389625e-05
142    1.04459618e-15
143    -2.22984995e-05
144    1.20845711e-15
145    2.95196173e-05
146    0.000322832329
147    0.00245582144
148    0.0120416452
149    0.0409812085
150    0.101430079
151    0.0480947164
152    0.145758001
153    -0.000483335401
154    -0.000289783315
155    1.01990538e-15
156    0.00151624296
157    0.000229116623
158    0.000134569865
159    2.588581e-15
160    -0.000109548547
161    -0.000173582322
162    -9.2087932e-05
163    9.80742908e-16
164    0.00136723815
165    -8.6910205e-05
166    -0.000114169435
167    4.71487775e-15
168    0.00425497798
169    -0.00073411539
170    -0.000191722283
171    1.31936387e-14
172    -2.68400125e-05
173    1.77026129e-16
174    -3.43915049e-05
175    -6.02354822e-18
176    -1.36537954e-05
177    1.00720686e-09
178    -1.63135602e-08
179    9.08472819e-08
180    -3.63262728e-07
181    4.673421e-06
182    1.88394727e-05
183    -1.2703521e-05
184    -2.12896589e-05
185    1.82398724e-06
186    -1.4459881e-15
187    -2.98262496e-05
188    6.99965698e-05
189    -2.15117689e-06
190    5.34640122e-15
191    1.81590593e-05
192    -2.76679463e-05
193    3.28814228e-07
194    -1.12949457e-14
195    -0.000226675158
196    6.34244288e-06
197    -0.000172592167
198    3.00800955e-14
199    0.00068139315
200    -0.00309659463
201    8.63851544e-05
202    3.34247167e-14
203    -7.53869881e-06
204    5.4658034e-16
205    2.34003121e-06
206    1.24023296e-15
207    -2.11912835e-05
208    1.19661492e-09
209    -2.51106582e-08
210    1.20235042e-07
211    -5.4887945e-07
212    6.61984726e-06
213    2.70054229e-05
214    -1.84979653e-05
215    -8.43259083e-06
216    1.42192928e-05
217    -2.76150233e-15
218    -4.13493211e-05
219    2.38672597e-05
220    -4.95836303e-05
221    6.3355701e-16
222    4.40804643e-05
223    2.27247031e-05
224    2.84953559e-05
225    -1.33949246e-14
226    2.2285741e-05
227    0.000133574636
228    2.32964454e-05
229    2.53664699e-14
230    0.00183481501
231    -0.000281608661
232    0.00069506594
233    1.6498931e-14
234    1.81759707e-05
235    -1.73744624e-16
236    4.05413089e-06
237    5.00972401e-17
238    2.22318234e-05
239    3.97705277e-10
240    5.49115469e-09
241    1.08522641e-08
242    1.04386344e-07
243    -3.52078034e-07
244    -2.16867246e-06
245    1.94020701e-06
246    -3.66894707e-06
247    -4.24687929e-06
248    -1.30613521e-16
249    2.43654701e-06
250    1.94229837e-05
251    2.08411959e-05
252    -1.74247318e-15
253    -0.000169875777
254    9.7112979e-05
255    -8.21193427e-05
256    -1.64572939e-15
257    -0.00400147605
258    0.00121487663
259    -0.000415693964
260    2.68273737e-14
261    0.00026339642
262    0.000201006669
263    0.000322507808
264    6.51771854e-14
265    6.79019394e-06
266    3.56980119e-16
267    -1.2185151e-06
268    5.52838035e-16
269    -1.25586236e-05
270    1.19554725e-06
271    -6.65758386e-06
272    -7.39868764e-05
273    -0.000363477929
274    -1.10353778e-06
275    -5.24994809e-07
276    7.03855328e-17
[5D]