[Molden Format]
[Atoms] (Angs)
  C      1    6     -0.00714236     -1.70213747     -0.00000000
  H      2    1     -2.06882847     -1.44022412      0.00000000
  H      3    1     -0.12337987     -2.77567521      0.00000000
  H      4    1      0.04651892      1.98813947     -0.00000000
  C      5    6     -1.21953563      0.40211669      0.00000000
  O      6    8     -2.25921553      1.03043814      0.00000000
  C      7    6      1.28797806      0.34644937     -0.00000000
  O      8    8      2.31273661      1.00537216     -0.00000000
  N      9    7      0.03446295      0.97739857     -0.00000000
  N     10    7     -1.17287765     -0.98229824      0.00000000
  C     11    6      1.20107039     -1.10433419     -0.00000000
  H     12    1      2.11220096     -1.67699125     -0.00000000
[GTO]
1    0
S    1    1.000000
   4.56324000E+03    1.96665000E-03 
S    1    1.000000
   6.82024000E+02    1.52306000E-02 
S    1    1.000000
   1.54973000E+02    7.61269000E-02 
S    1    1.000000
   4.44553000E+01    2.60801000E-01 
S    1    1.000000
   1.30290000E+01    6.16462000E-01 
S    1    1.000000
   1.82773000E+00    2.21006000E-01 
SP   3    1.000000
   2.09642000E+01    1.14660000E-01   4.02487000E-02 
   4.80331000E+00    9.19999000E-01   2.37594000E-01 
   1.45933000E+00   -3.03068000E-03   8.15854000E-01 
SP   1    1.000000
   4.83456000E-01    1.00000000E+00   1.00000000E+00 
SP   1    1.000000
   1.45585000E-01    1.00000000E+00   1.00000000E+00 
SP   1    1.000000
   4.38000000E-02    1.00000000E+00   1.00000000E+00 
SP   1    1.000000
   1.31927711E-02    1.00000000E+00   1.00000000E+00 
D    1    1.000000
   6.26000000E-01    1.00000000E+00 

2    0
S    3    1.000000
   3.38650000E+01    2.54938000E-02 
   5.09479000E+00    1.90373000E-01 
   1.15879000E+00    8.52161000E-01 
S    1    1.000000
   3.25840000E-01    1.00000000E+00 
S    1    1.000000
   1.02741000E-01    1.00000000E+00 
S    1    1.000000
   3.60000000E-02    1.00000000E+00 
P    1    1.000000
   7.50000000E-01    1.00000000E+00 

3    0
S    3    1.000000
   3.38650000E+01    2.54938000E-02 
   5.09479000E+00    1.90373000E-01 
   1.15879000E+00    8.52161000E-01 
S    1    1.000000
   3.25840000E-01    1.00000000E+00 
S    1    1.000000
   1.02741000E-01    1.00000000E+00 
S    1    1.000000
   3.60000000E-02    1.00000000E+00 
P    1    1.000000
   7.50000000E-01    1.00000000E+00 

4    0
S    3    1.000000
   3.38650000E+01    2.54938000E-02 
   5.09479000E+00    1.90373000E-01 
   1.15879000E+00    8.52161000E-01 
S    1    1.000000
   3.25840000E-01    1.00000000E+00 
S    1    1.000000
   1.02741000E-01    1.00000000E+00 
S    1    1.000000
   3.60000000E-02    1.00000000E+00 
P    1    1.000000
   7.50000000E-01    1.00000000E+00 

5    0
S    1    1.000000
   4.56324000E+03    1.96665000E-03 
S    1    1.000000
   6.82024000E+02    1.52306000E-02 
S    1    1.000000
   1.54973000E+02    7.61269000E-02 
S    1    1.000000
   4.44553000E+01    2.60801000E-01 
S    1    1.000000
   1.30290000E+01    6.16462000E-01 
S    1    1.000000
   1.82773000E+00    2.21006000E-01 
SP   3    1.000000
   2.09642000E+01    1.14660000E-01   4.02487000E-02 
   4.80331000E+00    9.19999000E-01   2.37594000E-01 
   1.45933000E+00   -3.03068000E-03   8.15854000E-01 
SP   1    1.000000
   4.83456000E-01    1.00000000E+00   1.00000000E+00 
SP   1    1.000000
   1.45585000E-01    1.00000000E+00   1.00000000E+00 
SP   1    1.000000
   4.38000000E-02    1.00000000E+00   1.00000000E+00 
SP   1    1.000000
   1.31927711E-02    1.00000000E+00   1.00000000E+00 
D    1    1.000000
   6.26000000E-01    1.00000000E+00 

6    0
S    1    1.000000
   8.58850000E+03    1.89515000E-03 
S    1    1.000000
   1.29723000E+03    1.43859000E-02 
S    1    1.000000
   2.99296000E+02    7.07320000E-02 
S    1    1.000000
   8.73771000E+01    2.40001000E-01 
S    1    1.000000
   2.56789000E+01    5.94797000E-01 
S    1    1.000000
   3.74004000E+00    2.80802000E-01 
SP   3    1.000000
   4.21175000E+01    1.13889000E-01   3.65114000E-02 
   9.62837000E+00    9.20811000E-01   2.37153000E-01 
   2.85332000E+00   -3.27447000E-03   8.19702000E-01 
SP   1    1.000000
   9.05661000E-01    1.00000000E+00   1.00000000E+00 
SP   1    1.000000
   2.55611000E-01    1.00000000E+00   1.00000000E+00 
SP   1    1.000000
   8.45000000E-02    1.00000000E+00   1.00000000E+00 
SP   1    1.000000
   2.54518072E-02    1.00000000E+00   1.00000000E+00 
D    1    1.000000
   1.29200000E+00    1.00000000E+00 

7    0
S    1    1.000000
   4.56324000E+03    1.96665000E-03 
S    1    1.000000
   6.82024000E+02    1.52306000E-02 
S    1    1.000000
   1.54973000E+02    7.61269000E-02 
S    1    1.000000
   4.44553000E+01    2.60801000E-01 
S    1    1.000000
   1.30290000E+01    6.16462000E-01 
S    1    1.000000
   1.82773000E+00    2.21006000E-01 
SP   3    1.000000
   2.09642000E+01    1.14660000E-01   4.02487000E-02 
   4.80331000E+00    9.19999000E-01   2.37594000E-01 
   1.45933000E+00   -3.03068000E-03   8.15854000E-01 
SP   1    1.000000
   4.83456000E-01    1.00000000E+00   1.00000000E+00 
SP   1    1.000000
   1.45585000E-01    1.00000000E+00   1.00000000E+00 
SP   1    1.000000
   4.38000000E-02    1.00000000E+00   1.00000000E+00 
SP   1    1.000000
   1.31927711E-02    1.00000000E+00   1.00000000E+00 
D    1    1.000000
   6.26000000E-01    1.00000000E+00 

8    0
S    1    1.000000
   8.58850000E+03    1.89515000E-03 
S    1    1.000000
   1.29723000E+03    1.43859000E-02 
S    1    1.000000
   2.99296000E+02    7.07320000E-02 
S    1    1.000000
   8.73771000E+01    2.40001000E-01 
S    1    1.000000
   2.56789000E+01    5.94797000E-01 
S    1    1.000000
   3.74004000E+00    2.80802000E-01 
SP   3    1.000000
   4.21175000E+01    1.13889000E-01   3.65114000E-02 
   9.62837000E+00    9.20811000E-01   2.37153000E-01 
   2.85332000E+00   -3.27447000E-03   8.19702000E-01 
SP   1    1.000000
   9.05661000E-01    1.00000000E+00   1.00000000E+00 
SP   1    1.000000
   2.55611000E-01    1.00000000E+00   1.00000000E+00 
SP   1    1.000000
   8.45000000E-02    1.00000000E+00   1.00000000E+00 
SP   1    1.000000
   2.54518072E-02    1.00000000E+00   1.00000000E+00 
D    1    1.000000
   1.29200000E+00    1.00000000E+00 

9    0
S    1    1.000000
   6.29348000E+03    1.96979000E-03 
S    1    1.000000
   9.49044000E+02    1.49613000E-02 
S    1    1.000000
   2.18776000E+02    7.35006000E-02 
S    1    1.000000
   6.36916000E+01    2.48937000E-01 
S    1    1.000000
   1.88282000E+01    6.02460000E-01 
S    1    1.000000
   2.72023000E+00    2.56202000E-01 
SP   3    1.000000
   3.06331000E+01    1.11906000E-01   3.83119000E-02 
   7.02614000E+00    9.21666000E-01   2.37403000E-01 
   2.11205000E+00   -2.56919000E-03   8.17592000E-01 
SP   1    1.000000
   6.84009000E-01    1.00000000E+00   1.00000000E+00 
SP   1    1.000000
   2.00878000E-01    1.00000000E+00   1.00000000E+00 
SP   1    1.000000
   6.39000000E-02    1.00000000E+00   1.00000000E+00 
SP   1    1.000000
   1.92469880E-02    1.00000000E+00   1.00000000E+00 
D    1    1.000000
   9.13000000E-01    1.00000000E+00 

10    0
S    1    1.000000
   6.29348000E+03    1.96979000E-03 
S    1    1.000000
   9.49044000E+02    1.49613000E-02 
S    1    1.000000
   2.18776000E+02    7.35006000E-02 
S    1    1.000000
   6.36916000E+01    2.48937000E-01 
S    1    1.000000
   1.88282000E+01    6.02460000E-01 
S    1    1.000000
   2.72023000E+00    2.56202000E-01 
SP   3    1.000000
   3.06331000E+01    1.11906000E-01   3.83119000E-02 
   7.02614000E+00    9.21666000E-01   2.37403000E-01 
   2.11205000E+00   -2.56919000E-03   8.17592000E-01 
SP   1    1.000000
   6.84009000E-01    1.00000000E+00   1.00000000E+00 
SP   1    1.000000
   2.00878000E-01    1.00000000E+00   1.00000000E+00 
SP   1    1.000000
   6.39000000E-02    1.00000000E+00   1.00000000E+00 
SP   1    1.000000
   1.92469880E-02    1.00000000E+00   1.00000000E+00 
D    1    1.000000
   9.13000000E-01    1.00000000E+00 

11    0
S    1    1.000000
   4.56324000E+03    1.96665000E-03 
S    1    1.000000
   6.82024000E+02    1.52306000E-02 
S    1    1.000000
   1.54973000E+02    7.61269000E-02 
S    1    1.000000
   4.44553000E+01    2.60801000E-01 
S    1    1.000000
   1.30290000E+01    6.16462000E-01 
S    1    1.000000
   1.82773000E+00    2.21006000E-01 
SP   3    1.000000
   2.09642000E+01    1.14660000E-01   4.02487000E-02 
   4.80331000E+00    9.19999000E-01   2.37594000E-01 
   1.45933000E+00   -3.03068000E-03   8.15854000E-01 
SP   1    1.000000
   4.83456000E-01    1.00000000E+00   1.00000000E+00 
SP   1    1.000000
   1.45585000E-01    1.00000000E+00   1.00000000E+00 
SP   1    1.000000
   4.38000000E-02    1.00000000E+00   1.00000000E+00 
SP   1    1.000000
   1.31927711E-02    1.00000000E+00   1.00000000E+00 
D    1    1.000000
   6.26000000E-01    1.00000000E+00 

12    0
S    3    1.000000
   3.38650000E+01    2.54938000E-02 
   5.09479000E+00    1.90373000E-01 
   1.15879000E+00    8.52161000E-01 
S    1    1.000000
   3.25840000E-01    1.00000000E+00 
S    1    1.000000
   1.02741000E-01    1.00000000E+00 
S    1    1.000000
   3.60000000E-02    1.00000000E+00 
P    1    1.000000
   7.50000000E-01    1.00000000E+00 

[MO]
Sym=X
Ene=0.227848
Spin=Alpha
Occup=1
1    -8.11317618e-10
2    1.71443204e-09
3    -5.00617566e-08
4    5.89724842e-08
5    -1.66706795e-06
6    -6.64712764e-06
7    3.3292699e-06
8    1.62121013e-06
9    -6.17296153e-07
10    7.76245679e-16
11    1.9434469e-05
12    -1.66805466e-05
13    5.42235365e-06
14    2.53464317e-15
15    -0.000149410523
16    -2.65876275e-05
17    -0.00014844129
18    -5.98769898e-16
19    -0.00288142994
20    5.46967283e-06
21    -0.0012146888
22    4.8367276e-14
23    -0.000315122023
24    -0.000236515246
25    0.000201668634
26    9.34176401e-15
27    -7.61368244e-06
28    -1.04502782e-16
29    2.71476494e-06
30    -4.37263473e-16
31    -4.78146702e-06
32    6.87849195e-06
33    -1.15134139e-05
34    -2.50932423e-05
35    9.53694429e-05
36    3.3642469e-06
37    -8.15626905e-06
38    1.05968511e-15
39    1.2641392e-06
40    -1.95980749e-05
41    -0.000111637515
42    -0.000764698621
43    -1.12553139e-06
44    -3.57508637e-06
45    2.58241916e-16
46    5.55040944e-06
47    9.54609307e-07
48    -9.75669116e-05
49    0.000125556857
50    8.55338984e-06
51    4.54619683e-07
52    -3.14293855e-16
53    -8.93189241e-09
54    -1.29004399e-07
55    -2.76469503e-07
56    -3.22629616e-06
57    -7.12059174e-06
58    -0.00012033431
59    -1.44589184e-05
60    -3.51000613e-05
61    2.16319342e-05
62    2.46136449e-15
63    0.000446165848
64    -0.000453438402
65    0.000272765542
66    -9.86924182e-16
67    -0.00089061796
68    0.000469348773
69    -0.000285864722
70    6.32361161e-15
71    -0.00214877937
72    0.00270470948
73    -0.00173895009
74    4.94773531e-14
75    0.00139369668
76    0.000107729336
77    0.000232191303
78    5.70608204e-15
79    -0.000243926013
80    -6.1458636e-16
81    -8.00370289e-05
82    -1.09920177e-15
83    0.000127607338
84    0.00104384944
85    0.00794069119
86    0.0389355529
87    0.132509628
88    0.327964772
89    0.155520533
90    0.471287977
91    0.00159310093
92    -0.000975078972
93    9.90998234e-16
94    0.00493927306
95    -0.000742638467
96    0.000452854976
97    7.09930847e-16
98    -0.000586067115
99    0.000409155028
100    -0.00025030914
101    5.11300698e-15
102    0.00323896935
103    0.000235877586
104    -0.000142287507
105    -5.6506122e-15
106    0.00755128799
107    0.00139663691
108    -0.000692647499
109    4.63945918e-15
110    8.60929607e-05
111    -7.73374297e-16
112    -7.52547407e-05
113    1.85230959e-16
114    -4.74858757e-05
115    -8.06194857e-10
116    1.99149292e-09
117    -5.03878714e-08
118    6.62736888e-08
119    -1.66640263e-06
120    -6.4301684e-06
121    3.32341087e-06
122    2.0214122e-06
123    5.41088517e-07
124    -1.89023168e-15
125    1.63707894e-05
126    -1.14069486e-05
127    2.5255105e-06
128    1.00678002e-15
129    6.11458822e-05
130    0.000237047607
131    0.000157577237
132    -9.57077548e-15
133    -0.00186109866
134    0.00111989733
135    0.000399630123
136    6.86033905e-14
137    -0.00040833669
138    0.000173943268
139    -0.000253072947
140    4.49845209e-14
141    3.76407488e-06
142    -9.11841358e-16
143    -4.94105616e-07
144    -1.14138858e-15
145    5.53460921e-06
146    -1.84962724e-07
147    -1.40268574e-06
148    -6.90903671e-06
149    -2.33942041e-05
150    -5.89632804e-05
151    -3.12026559e-05
152    -8.11092025e-05
153    1.94669977e-06
154    -2.58962126e-08
155    -7.19127081e-16
156    1.06270031e-05
157    -5.67646365e-06
158    -3.5740756e-07
159    -2.90591576e-15
160    -9.25297917e-05
161    5.61249947e-05
162    2.41604727e-05
163    1.10530118e-15
164    -0.00045606169
165    4.23094366e-05
166    7.21987157e-05
167    -9.35545847e-15
168    -0.00238449906
169    0.000383393374
170    7.94587372e-05
171    -1.52356695e-14
172    -1.59514199e-06
173    -1.6649868e-16
174    1.28666078e-06
175    -5.212975e-17
176    -4.36555237e-07
177    -1.31334636e-09
178    2.5071828e-08
179    -1.26538956e-07
180    5.51554505e-07
181    -6.80494365e-06
182    -2.76153594e-05
183    1.88682378e-05
184    1.67392128e-05
185    -1.49308767e-06
186    1.76885007e-15
187    3.91907096e-05
188    -5.50622408e-05
189    -5.54901123e-07
190    -5.76605642e-15
191    2.09161856e-05
192    1.33778609e-05
193    -1.89744904e-05
194    1.40715889e-14
195    0.000191352067
196    -3.86471463e-05
197    0.000213114035
198    -4.14476742e-14
199    -0.00142360856
200    0.00233585404
201    -7.26732066e-05
202    -4.41554128e-14
203    3.90305635e-06
204    -3.69876161e-16
205    -4.50232695e-06
206    -1.22066529e-15
207    3.15229542e-05
208    -1.31335054e-09
209    2.76135832e-08
210    -1.32262016e-07
211    6.03476254e-07
212    -7.26493981e-06
213    -2.95949211e-05
214    2.02190656e-05
215    8.70028042e-06
216    -1.47645575e-05
217    3.01552805e-15
218    4.43335934e-05
219    -2.37701142e-05
220    5.12893178e-05
221    -1.79644305e-15
222    -8.03747772e-06
223    7.63995174e-06
224    -1.93328162e-05
225    1.58923832e-14
226    0.000193683689
227    -5.91460392e-05
228    -1.38537354e-05
229    -3.69054985e-14
230    -0.00192129296
231    0.000379415276
232    -0.00077054854
233    -1.41761816e-14
234    -2.04186016e-05
235    2.09214399e-16
236    -4.10662927e-06
237    2.53893209e-17
238    -2.38387821e-05
239    3.50065221e-11
240    2.74385227e-10
241    1.39775678e-09
242    1.69031238e-09
243    -6.62748033e-08
244    -1.07904918e-06
245    2.90138963e-07
246    1.28763428e-06
247    -4.82209397e-08
248    4.4918592e-16
249    -6.36987747e-08
250    -1.35108425e-05
251    1.04154194e-06
252    5.43447025e-16
253    0.00023667554
254    -0.000144712544
255    7.93382085e-05
256    5.27308189e-15
257    0.00307527752
258    -0.000723794501
259    0.000413194746
260    -5.28331626e-14
261    -0.00011534372
262    -0.000110735483
263    -0.000282366504
264    -2.88762537e-14
265    5.77086669e-06
266    -3.09134947e-16
267    1.28830317e-06
268    -6.45454663e-16
269    3.12553802e-07
270    5.9302583e-07
271    2.44043721e-05
272    5.53478177e-05
273    7.0018483e-05
274    -3.62373976e-06
275    2.51547636e-06
276    -1.18803184e-16
[5D]