[Molden Format]
[Atoms] (Angs)
  C      1    6     -0.00714236     -1.70213747     -0.00000000
  H      2    1     -2.06882847     -1.44022412      0.00000000
  H      3    1     -0.12337987     -2.77567521      0.00000000
  H      4    1      0.04651892      1.98813947     -0.00000000
  C      5    6     -1.21953563      0.40211669      0.00000000
  O      6    8     -2.25921553      1.03043814      0.00000000
  C      7    6      1.28797806      0.34644937     -0.00000000
  O      8    8      2.31273661      1.00537216     -0.00000000
  N      9    7      0.03446295      0.97739857     -0.00000000
  N     10    7     -1.17287765     -0.98229824      0.00000000
  C     11    6      1.20107039     -1.10433419     -0.00000000
  H     12    1      2.11220096     -1.67699125     -0.00000000
[GTO]
1    0
S    1    1.000000
   4.56324000E+03    1.96665000E-03 
S    1    1.000000
   6.82024000E+02    1.52306000E-02 
S    1    1.000000
   1.54973000E+02    7.61269000E-02 
S    1    1.000000
   4.44553000E+01    2.60801000E-01 
S    1    1.000000
   1.30290000E+01    6.16462000E-01 
S    1    1.000000
   1.82773000E+00    2.21006000E-01 
SP   3    1.000000
   2.09642000E+01    1.14660000E-01   4.02487000E-02 
   4.80331000E+00    9.19999000E-01   2.37594000E-01 
   1.45933000E+00   -3.03068000E-03   8.15854000E-01 
SP   1    1.000000
   4.83456000E-01    1.00000000E+00   1.00000000E+00 
SP   1    1.000000
   1.45585000E-01    1.00000000E+00   1.00000000E+00 
SP   1    1.000000
   4.38000000E-02    1.00000000E+00   1.00000000E+00 
SP   1    1.000000
   1.31927711E-02    1.00000000E+00   1.00000000E+00 
D    1    1.000000
   6.26000000E-01    1.00000000E+00 

2    0
S    3    1.000000
   3.38650000E+01    2.54938000E-02 
   5.09479000E+00    1.90373000E-01 
   1.15879000E+00    8.52161000E-01 
S    1    1.000000
   3.25840000E-01    1.00000000E+00 
S    1    1.000000
   1.02741000E-01    1.00000000E+00 
S    1    1.000000
   3.60000000E-02    1.00000000E+00 
P    1    1.000000
   7.50000000E-01    1.00000000E+00 

3    0
S    3    1.000000
   3.38650000E+01    2.54938000E-02 
   5.09479000E+00    1.90373000E-01 
   1.15879000E+00    8.52161000E-01 
S    1    1.000000
   3.25840000E-01    1.00000000E+00 
S    1    1.000000
   1.02741000E-01    1.00000000E+00 
S    1    1.000000
   3.60000000E-02    1.00000000E+00 
P    1    1.000000
   7.50000000E-01    1.00000000E+00 

4    0
S    3    1.000000
   3.38650000E+01    2.54938000E-02 
   5.09479000E+00    1.90373000E-01 
   1.15879000E+00    8.52161000E-01 
S    1    1.000000
   3.25840000E-01    1.00000000E+00 
S    1    1.000000
   1.02741000E-01    1.00000000E+00 
S    1    1.000000
   3.60000000E-02    1.00000000E+00 
P    1    1.000000
   7.50000000E-01    1.00000000E+00 

5    0
S    1    1.000000
   4.56324000E+03    1.96665000E-03 
S    1    1.000000
   6.82024000E+02    1.52306000E-02 
S    1    1.000000
   1.54973000E+02    7.61269000E-02 
S    1    1.000000
   4.44553000E+01    2.60801000E-01 
S    1    1.000000
   1.30290000E+01    6.16462000E-01 
S    1    1.000000
   1.82773000E+00    2.21006000E-01 
SP   3    1.000000
   2.09642000E+01    1.14660000E-01   4.02487000E-02 
   4.80331000E+00    9.19999000E-01   2.37594000E-01 
   1.45933000E+00   -3.03068000E-03   8.15854000E-01 
SP   1    1.000000
   4.83456000E-01    1.00000000E+00   1.00000000E+00 
SP   1    1.000000
   1.45585000E-01    1.00000000E+00   1.00000000E+00 
SP   1    1.000000
   4.38000000E-02    1.00000000E+00   1.00000000E+00 
SP   1    1.000000
   1.31927711E-02    1.00000000E+00   1.00000000E+00 
D    1    1.000000
   6.26000000E-01    1.00000000E+00 

6    0
S    1    1.000000
   8.58850000E+03    1.89515000E-03 
S    1    1.000000
   1.29723000E+03    1.43859000E-02 
S    1    1.000000
   2.99296000E+02    7.07320000E-02 
S    1    1.000000
   8.73771000E+01    2.40001000E-01 
S    1    1.000000
   2.56789000E+01    5.94797000E-01 
S    1    1.000000
   3.74004000E+00    2.80802000E-01 
SP   3    1.000000
   4.21175000E+01    1.13889000E-01   3.65114000E-02 
   9.62837000E+00    9.20811000E-01   2.37153000E-01 
   2.85332000E+00   -3.27447000E-03   8.19702000E-01 
SP   1    1.000000
   9.05661000E-01    1.00000000E+00   1.00000000E+00 
SP   1    1.000000
   2.55611000E-01    1.00000000E+00   1.00000000E+00 
SP   1    1.000000
   8.45000000E-02    1.00000000E+00   1.00000000E+00 
SP   1    1.000000
   2.54518072E-02    1.00000000E+00   1.00000000E+00 
D    1    1.000000
   1.29200000E+00    1.00000000E+00 

7    0
S    1    1.000000
   4.56324000E+03    1.96665000E-03 
S    1    1.000000
   6.82024000E+02    1.52306000E-02 
S    1    1.000000
   1.54973000E+02    7.61269000E-02 
S    1    1.000000
   4.44553000E+01    2.60801000E-01 
S    1    1.000000
   1.30290000E+01    6.16462000E-01 
S    1    1.000000
   1.82773000E+00    2.21006000E-01 
SP   3    1.000000
   2.09642000E+01    1.14660000E-01   4.02487000E-02 
   4.80331000E+00    9.19999000E-01   2.37594000E-01 
   1.45933000E+00   -3.03068000E-03   8.15854000E-01 
SP   1    1.000000
   4.83456000E-01    1.00000000E+00   1.00000000E+00 
SP   1    1.000000
   1.45585000E-01    1.00000000E+00   1.00000000E+00 
SP   1    1.000000
   4.38000000E-02    1.00000000E+00   1.00000000E+00 
SP   1    1.000000
   1.31927711E-02    1.00000000E+00   1.00000000E+00 
D    1    1.000000
   6.26000000E-01    1.00000000E+00 

8    0
S    1    1.000000
   8.58850000E+03    1.89515000E-03 
S    1    1.000000
   1.29723000E+03    1.43859000E-02 
S    1    1.000000
   2.99296000E+02    7.07320000E-02 
S    1    1.000000
   8.73771000E+01    2.40001000E-01 
S    1    1.000000
   2.56789000E+01    5.94797000E-01 
S    1    1.000000
   3.74004000E+00    2.80802000E-01 
SP   3    1.000000
   4.21175000E+01    1.13889000E-01   3.65114000E-02 
   9.62837000E+00    9.20811000E-01   2.37153000E-01 
   2.85332000E+00   -3.27447000E-03   8.19702000E-01 
SP   1    1.000000
   9.05661000E-01    1.00000000E+00   1.00000000E+00 
SP   1    1.000000
   2.55611000E-01    1.00000000E+00   1.00000000E+00 
SP   1    1.000000
   8.45000000E-02    1.00000000E+00   1.00000000E+00 
SP   1    1.000000
   2.54518072E-02    1.00000000E+00   1.00000000E+00 
D    1    1.000000
   1.29200000E+00    1.00000000E+00 

9    0
S    1    1.000000
   6.29348000E+03    1.96979000E-03 
S    1    1.000000
   9.49044000E+02    1.49613000E-02 
S    1    1.000000
   2.18776000E+02    7.35006000E-02 
S    1    1.000000
   6.36916000E+01    2.48937000E-01 
S    1    1.000000
   1.88282000E+01    6.02460000E-01 
S    1    1.000000
   2.72023000E+00    2.56202000E-01 
SP   3    1.000000
   3.06331000E+01    1.11906000E-01   3.83119000E-02 
   7.02614000E+00    9.21666000E-01   2.37403000E-01 
   2.11205000E+00   -2.56919000E-03   8.17592000E-01 
SP   1    1.000000
   6.84009000E-01    1.00000000E+00   1.00000000E+00 
SP   1    1.000000
   2.00878000E-01    1.00000000E+00   1.00000000E+00 
SP   1    1.000000
   6.39000000E-02    1.00000000E+00   1.00000000E+00 
SP   1    1.000000
   1.92469880E-02    1.00000000E+00   1.00000000E+00 
D    1    1.000000
   9.13000000E-01    1.00000000E+00 

10    0
S    1    1.000000
   6.29348000E+03    1.96979000E-03 
S    1    1.000000
   9.49044000E+02    1.49613000E-02 
S    1    1.000000
   2.18776000E+02    7.35006000E-02 
S    1    1.000000
   6.36916000E+01    2.48937000E-01 
S    1    1.000000
   1.88282000E+01    6.02460000E-01 
S    1    1.000000
   2.72023000E+00    2.56202000E-01 
SP   3    1.000000
   3.06331000E+01    1.11906000E-01   3.83119000E-02 
   7.02614000E+00    9.21666000E-01   2.37403000E-01 
   2.11205000E+00   -2.56919000E-03   8.17592000E-01 
SP   1    1.000000
   6.84009000E-01    1.00000000E+00   1.00000000E+00 
SP   1    1.000000
   2.00878000E-01    1.00000000E+00   1.00000000E+00 
SP   1    1.000000
   6.39000000E-02    1.00000000E+00   1.00000000E+00 
SP   1    1.000000
   1.92469880E-02    1.00000000E+00   1.00000000E+00 
D    1    1.000000
   9.13000000E-01    1.00000000E+00 

11    0
S    1    1.000000
   4.56324000E+03    1.96665000E-03 
S    1    1.000000
   6.82024000E+02    1.52306000E-02 
S    1    1.000000
   1.54973000E+02    7.61269000E-02 
S    1    1.000000
   4.44553000E+01    2.60801000E-01 
S    1    1.000000
   1.30290000E+01    6.16462000E-01 
S    1    1.000000
   1.82773000E+00    2.21006000E-01 
SP   3    1.000000
   2.09642000E+01    1.14660000E-01   4.02487000E-02 
   4.80331000E+00    9.19999000E-01   2.37594000E-01 
   1.45933000E+00   -3.03068000E-03   8.15854000E-01 
SP   1    1.000000
   4.83456000E-01    1.00000000E+00   1.00000000E+00 
SP   1    1.000000
   1.45585000E-01    1.00000000E+00   1.00000000E+00 
SP   1    1.000000
   4.38000000E-02    1.00000000E+00   1.00000000E+00 
SP   1    1.000000
   1.31927711E-02    1.00000000E+00   1.00000000E+00 
D    1    1.000000
   6.26000000E-01    1.00000000E+00 

12    0
S    3    1.000000
   3.38650000E+01    2.54938000E-02 
   5.09479000E+00    1.90373000E-01 
   1.15879000E+00    8.52161000E-01 
S    1    1.000000
   3.25840000E-01    1.00000000E+00 
S    1    1.000000
   1.02741000E-01    1.00000000E+00 
S    1    1.000000
   3.60000000E-02    1.00000000E+00 
P    1    1.000000
   7.50000000E-01    1.00000000E+00 

[MO]
Sym=X
Ene=0.112076
Spin=Alpha
Occup=1
1    -8.11975959e-10
2    1.71893928e-09
3    -5.01092404e-08
4    5.90885389e-08
5    -1.66891991e-06
6    -6.6543625e-06
7    3.33342913e-06
8    1.62082927e-06
9    -6.1824914e-07
10    7.76218789e-16
11    1.94538026e-05
12    -1.66752025e-05
13    5.42832272e-06
14    2.53431689e-15
15    -0.000149540645
16    -2.65992381e-05
17    -0.000148519182
18    -6.00745894e-16
19    -0.0028806259
20    5.6410894e-06
21    -0.00121477877
22    4.83865214e-14
23    -0.000314862913
24    -0.000236407695
25    0.000201687333
26    9.30001593e-15
27    -7.60818014e-06
28    -1.04507969e-16
29    2.7161539e-06
30    -4.37322115e-16
31    -4.7845435e-06
32    6.87862995e-06
33    -1.15036606e-05
34    -2.5096132e-05
35    9.54170499e-05
36    3.36455418e-06
37    -8.15552857e-06
38    1.05959443e-15
39    1.2635576e-06
40    -1.96009585e-05
41    -0.00011170059
42    -0.000764815214
43    -1.12434479e-06
44    -3.57630647e-06
45    2.58303121e-16
46    5.55319354e-06
47    9.54595869e-07
48    -9.75639916e-05
49    0.000125603002
50    8.55139276e-06
51    4.5421385e-07
52    -3.14314531e-16
53    -8.93224856e-09
54    -1.29003618e-07
55    -2.76491538e-07
56    -3.22626935e-06
57    -7.12132129e-06
58    -0.000120337172
59    -1.44574637e-05
60    -3.51002952e-05
61    2.16321662e-05
62    2.46167978e-15
63    0.000446174047
64    -0.000453436406
65    0.000272766501
66    -9.88029632e-16
67    -0.000890635724
68    0.000469245178
69    -0.000285821531
70    6.324979e-15
71    -0.00214916228
72    0.00270426151
73    -0.00173890131
74    4.94844436e-14
75    0.00139328009
76    0.000107633988
77    0.000232021312
78    5.72653972e-15
79    -0.000243927223
80    -6.14393654e-16
81    -8.00364467e-05
82    -1.09906896e-15
83    0.000127609284
84    0.00104384943
85    0.00794069114
86    0.0389355526
87    0.132509628
88    0.327964769
89    0.155520531
90    0.471287974
91    0.00159310022
92    -0.000975079194
93    9.90754839e-16
94    0.00493927636
95    -0.000742636184
96    0.00045285545
97    7.10495132e-16
98    -0.000586097261
99    0.000409135714
100    -0.000250301608
101    5.11110605e-15
102    0.00323879337
103    0.000235867609
104    -0.00014225442
105    -5.64818598e-15
106    0.00755031983
107    0.00139648553
108    -0.00069261408
109    4.63141027e-15
110    8.6093621e-05
111    -7.73351924e-16
112    -7.52543038e-05
113    1.85360686e-16
114    -4.74859007e-05
115    -8.09256245e-10
116    1.94463866e-09
117    -5.04790459e-08
118    6.50872265e-08
119    -1.66886856e-06
120    -6.47406643e-06
121    3.31769356e-06
122    2.03394296e-06
123    5.50781526e-07
124    -1.89040528e-15
125    1.65325983e-05
126    -1.12383644e-05
127    2.63718542e-06
128    1.00800684e-15
129    6.08332831e-05
130    0.000236920427
131    0.000157494713
132    -9.57232822e-15
133    -0.00186125283
134    0.00111866187
135    0.000398984174
136    6.86317765e-14
137    -0.000408262813
138    0.000173772201
139    -0.000252783373
140    4.49595892e-14
141    3.86085131e-06
142    -9.1161808e-16
143    -5.2275208e-07
144    -1.14123378e-15
145    5.57837193e-06
146    2.20993531e-07
147    1.68547386e-06
148    8.23311888e-06
149    2.81390826e-05
150    6.85823304e-05
151    2.92712817e-05
152    0.00010218192
153    1.34091144e-06
154    -3.90523518e-07
155    -7.18704289e-16
156    1.25474076e-05
157    -5.39498805e-06
158    -1.88523588e-07
159    -2.90613576e-15
160    -9.27783323e-05
161    5.59737512e-05
162    2.4073518e-05
163    1.10785759e-15
164    -0.000454887143
165    4.22507113e-05
166    7.21414556e-05
167    -9.36071998e-15
168    -0.00238199858
169    0.000382928455
170    7.9312589e-05
171    -1.52372988e-14
172    -1.63081981e-06
173    -1.66475164e-16
174    1.24492992e-06
175    -5.21997008e-17
176    -4.54256346e-07
177    -1.31365052e-09
178    2.50813007e-08
179    -1.26576056e-07
180    5.51757383e-07
181    -6.80720568e-06
182    -2.76246974e-05
183    1.88748301e-05
184    1.6732455e-05
185    -1.49257924e-06
186    1.76914717e-15
187    3.9200074e-05
188    -5.50400541e-05
189    -5.58271595e-07
190    -5.76622872e-15
191    2.09640585e-05
192    1.33590563e-05
193    -1.89967793e-05
194    1.40742143e-14
195    0.000191295821
196    -3.86854069e-05
197    0.000213151871
198    -4.14594197e-14
199    -0.00142445458
200    0.0023347528
201    -7.26514715e-05
202    -4.416619e-14
203    3.89824132e-06
204    -3.6963102e-16
205    -4.50476974e-06
206    -1.22056537e-15
207    3.15340086e-05
208    -1.3134164e-09
209    2.76150288e-08
210    -1.32268989e-07
211    6.03507719e-07
212    -7.26530328e-06
213    -2.95963535e-05
214    2.02199837e-05
215    8.70008051e-06
216    -1.47643327e-05
217    3.01566163e-15
218    4.43346133e-05
219    -2.37685257e-05
220    5.12882999e-05
221    -1.79779534e-15
222    -7.99163374e-06
223    7.6776843e-06
224    -1.93200955e-05
225    1.5894545e-14
226    0.000193943467
227    -5.90487468e-05
228    -1.38410002e-05
229    -3.69177399e-14
230    -0.00192128325
231    0.000379514928
232    -0.000770595975
233    -1.41723847e-14
234    -2.04201636e-05
235    2.0924612e-16
236    -4.10644199e-06
237    2.54827295e-17
238    -2.38393333e-05
239    3.5548787e-11
240    2.81622323e-10
241    1.41308315e-09
242    1.82367044e-09
243    -6.67970734e-08
244    -1.08306879e-06
245    2.92927217e-07
246    1.28455876e-06
247    -5.3621926e-08
248    4.49559028e-16
249    -6.07094017e-08
250    -1.35025706e-05
251    1.06900987e-06
252    5.41904923e-16
253    0.000236744985
254    -0.000144763505
255    7.93298151e-05
256    5.27732042e-15
257    0.00307392249
258    -0.000723131987
259    0.000413166112
260    -5.28626231e-14
261    -0.00011515033
262    -0.000110615076
263    -0.000282298581
264    -2.88287997e-14
265    5.78631462e-06
266    -3.09055679e-16
267    1.2883115e-06
268    -6.45531373e-16
269    2.97126899e-07
270    5.95239574e-07
271    2.4425195e-05
272    5.53209523e-05
273    6.96449422e-05
274    -3.62946393e-06
275    2.51782555e-06
276    -1.18856772e-16
[5D]