[Molden Format]
[Atoms] (Angs)
  C      1    6     -0.00714236     -1.70213747     -0.00000000
  H      2    1     -2.06882847     -1.44022412      0.00000000
  H      3    1     -0.12337987     -2.77567521      0.00000000
  H      4    1      0.04651892      1.98813947     -0.00000000
  C      5    6     -1.21953563      0.40211669      0.00000000
  O      6    8     -2.25921553      1.03043814      0.00000000
  C      7    6      1.28797806      0.34644937     -0.00000000
  O      8    8      2.31273661      1.00537216     -0.00000000
  N      9    7      0.03446295      0.97739857     -0.00000000
  N     10    7     -1.17287765     -0.98229824      0.00000000
  C     11    6      1.20107039     -1.10433419     -0.00000000
  H     12    1      2.11220096     -1.67699125     -0.00000000
[GTO]
1    0
S    1    1.000000
   4.56324000E+03    1.96665000E-03 
S    1    1.000000
   6.82024000E+02    1.52306000E-02 
S    1    1.000000
   1.54973000E+02    7.61269000E-02 
S    1    1.000000
   4.44553000E+01    2.60801000E-01 
S    1    1.000000
   1.30290000E+01    6.16462000E-01 
S    1    1.000000
   1.82773000E+00    2.21006000E-01 
SP   3    1.000000
   2.09642000E+01    1.14660000E-01   4.02487000E-02 
   4.80331000E+00    9.19999000E-01   2.37594000E-01 
   1.45933000E+00   -3.03068000E-03   8.15854000E-01 
SP   1    1.000000
   4.83456000E-01    1.00000000E+00   1.00000000E+00 
SP   1    1.000000
   1.45585000E-01    1.00000000E+00   1.00000000E+00 
SP   1    1.000000
   4.38000000E-02    1.00000000E+00   1.00000000E+00 
SP   1    1.000000
   1.31927711E-02    1.00000000E+00   1.00000000E+00 
D    1    1.000000
   6.26000000E-01    1.00000000E+00 

2    0
S    3    1.000000
   3.38650000E+01    2.54938000E-02 
   5.09479000E+00    1.90373000E-01 
   1.15879000E+00    8.52161000E-01 
S    1    1.000000
   3.25840000E-01    1.00000000E+00 
S    1    1.000000
   1.02741000E-01    1.00000000E+00 
S    1    1.000000
   3.60000000E-02    1.00000000E+00 
P    1    1.000000
   7.50000000E-01    1.00000000E+00 

3    0
S    3    1.000000
   3.38650000E+01    2.54938000E-02 
   5.09479000E+00    1.90373000E-01 
   1.15879000E+00    8.52161000E-01 
S    1    1.000000
   3.25840000E-01    1.00000000E+00 
S    1    1.000000
   1.02741000E-01    1.00000000E+00 
S    1    1.000000
   3.60000000E-02    1.00000000E+00 
P    1    1.000000
   7.50000000E-01    1.00000000E+00 

4    0
S    3    1.000000
   3.38650000E+01    2.54938000E-02 
   5.09479000E+00    1.90373000E-01 
   1.15879000E+00    8.52161000E-01 
S    1    1.000000
   3.25840000E-01    1.00000000E+00 
S    1    1.000000
   1.02741000E-01    1.00000000E+00 
S    1    1.000000
   3.60000000E-02    1.00000000E+00 
P    1    1.000000
   7.50000000E-01    1.00000000E+00 

5    0
S    1    1.000000
   4.56324000E+03    1.96665000E-03 
S    1    1.000000
   6.82024000E+02    1.52306000E-02 
S    1    1.000000
   1.54973000E+02    7.61269000E-02 
S    1    1.000000
   4.44553000E+01    2.60801000E-01 
S    1    1.000000
   1.30290000E+01    6.16462000E-01 
S    1    1.000000
   1.82773000E+00    2.21006000E-01 
SP   3    1.000000
   2.09642000E+01    1.14660000E-01   4.02487000E-02 
   4.80331000E+00    9.19999000E-01   2.37594000E-01 
   1.45933000E+00   -3.03068000E-03   8.15854000E-01 
SP   1    1.000000
   4.83456000E-01    1.00000000E+00   1.00000000E+00 
SP   1    1.000000
   1.45585000E-01    1.00000000E+00   1.00000000E+00 
SP   1    1.000000
   4.38000000E-02    1.00000000E+00   1.00000000E+00 
SP   1    1.000000
   1.31927711E-02    1.00000000E+00   1.00000000E+00 
D    1    1.000000
   6.26000000E-01    1.00000000E+00 

6    0
S    1    1.000000
   8.58850000E+03    1.89515000E-03 
S    1    1.000000
   1.29723000E+03    1.43859000E-02 
S    1    1.000000
   2.99296000E+02    7.07320000E-02 
S    1    1.000000
   8.73771000E+01    2.40001000E-01 
S    1    1.000000
   2.56789000E+01    5.94797000E-01 
S    1    1.000000
   3.74004000E+00    2.80802000E-01 
SP   3    1.000000
   4.21175000E+01    1.13889000E-01   3.65114000E-02 
   9.62837000E+00    9.20811000E-01   2.37153000E-01 
   2.85332000E+00   -3.27447000E-03   8.19702000E-01 
SP   1    1.000000
   9.05661000E-01    1.00000000E+00   1.00000000E+00 
SP   1    1.000000
   2.55611000E-01    1.00000000E+00   1.00000000E+00 
SP   1    1.000000
   8.45000000E-02    1.00000000E+00   1.00000000E+00 
SP   1    1.000000
   2.54518072E-02    1.00000000E+00   1.00000000E+00 
D    1    1.000000
   1.29200000E+00    1.00000000E+00 

7    0
S    1    1.000000
   4.56324000E+03    1.96665000E-03 
S    1    1.000000
   6.82024000E+02    1.52306000E-02 
S    1    1.000000
   1.54973000E+02    7.61269000E-02 
S    1    1.000000
   4.44553000E+01    2.60801000E-01 
S    1    1.000000
   1.30290000E+01    6.16462000E-01 
S    1    1.000000
   1.82773000E+00    2.21006000E-01 
SP   3    1.000000
   2.09642000E+01    1.14660000E-01   4.02487000E-02 
   4.80331000E+00    9.19999000E-01   2.37594000E-01 
   1.45933000E+00   -3.03068000E-03   8.15854000E-01 
SP   1    1.000000
   4.83456000E-01    1.00000000E+00   1.00000000E+00 
SP   1    1.000000
   1.45585000E-01    1.00000000E+00   1.00000000E+00 
SP   1    1.000000
   4.38000000E-02    1.00000000E+00   1.00000000E+00 
SP   1    1.000000
   1.31927711E-02    1.00000000E+00   1.00000000E+00 
D    1    1.000000
   6.26000000E-01    1.00000000E+00 

8    0
S    1    1.000000
   8.58850000E+03    1.89515000E-03 
S    1    1.000000
   1.29723000E+03    1.43859000E-02 
S    1    1.000000
   2.99296000E+02    7.07320000E-02 
S    1    1.000000
   8.73771000E+01    2.40001000E-01 
S    1    1.000000
   2.56789000E+01    5.94797000E-01 
S    1    1.000000
   3.74004000E+00    2.80802000E-01 
SP   3    1.000000
   4.21175000E+01    1.13889000E-01   3.65114000E-02 
   9.62837000E+00    9.20811000E-01   2.37153000E-01 
   2.85332000E+00   -3.27447000E-03   8.19702000E-01 
SP   1    1.000000
   9.05661000E-01    1.00000000E+00   1.00000000E+00 
SP   1    1.000000
   2.55611000E-01    1.00000000E+00   1.00000000E+00 
SP   1    1.000000
   8.45000000E-02    1.00000000E+00   1.00000000E+00 
SP   1    1.000000
   2.54518072E-02    1.00000000E+00   1.00000000E+00 
D    1    1.000000
   1.29200000E+00    1.00000000E+00 

9    0
S    1    1.000000
   6.29348000E+03    1.96979000E-03 
S    1    1.000000
   9.49044000E+02    1.49613000E-02 
S    1    1.000000
   2.18776000E+02    7.35006000E-02 
S    1    1.000000
   6.36916000E+01    2.48937000E-01 
S    1    1.000000
   1.88282000E+01    6.02460000E-01 
S    1    1.000000
   2.72023000E+00    2.56202000E-01 
SP   3    1.000000
   3.06331000E+01    1.11906000E-01   3.83119000E-02 
   7.02614000E+00    9.21666000E-01   2.37403000E-01 
   2.11205000E+00   -2.56919000E-03   8.17592000E-01 
SP   1    1.000000
   6.84009000E-01    1.00000000E+00   1.00000000E+00 
SP   1    1.000000
   2.00878000E-01    1.00000000E+00   1.00000000E+00 
SP   1    1.000000
   6.39000000E-02    1.00000000E+00   1.00000000E+00 
SP   1    1.000000
   1.92469880E-02    1.00000000E+00   1.00000000E+00 
D    1    1.000000
   9.13000000E-01    1.00000000E+00 

10    0
S    1    1.000000
   6.29348000E+03    1.96979000E-03 
S    1    1.000000
   9.49044000E+02    1.49613000E-02 
S    1    1.000000
   2.18776000E+02    7.35006000E-02 
S    1    1.000000
   6.36916000E+01    2.48937000E-01 
S    1    1.000000
   1.88282000E+01    6.02460000E-01 
S    1    1.000000
   2.72023000E+00    2.56202000E-01 
SP   3    1.000000
   3.06331000E+01    1.11906000E-01   3.83119000E-02 
   7.02614000E+00    9.21666000E-01   2.37403000E-01 
   2.11205000E+00   -2.56919000E-03   8.17592000E-01 
SP   1    1.000000
   6.84009000E-01    1.00000000E+00   1.00000000E+00 
SP   1    1.000000
   2.00878000E-01    1.00000000E+00   1.00000000E+00 
SP   1    1.000000
   6.39000000E-02    1.00000000E+00   1.00000000E+00 
SP   1    1.000000
   1.92469880E-02    1.00000000E+00   1.00000000E+00 
D    1    1.000000
   9.13000000E-01    1.00000000E+00 

11    0
S    1    1.000000
   4.56324000E+03    1.96665000E-03 
S    1    1.000000
   6.82024000E+02    1.52306000E-02 
S    1    1.000000
   1.54973000E+02    7.61269000E-02 
S    1    1.000000
   4.44553000E+01    2.60801000E-01 
S    1    1.000000
   1.30290000E+01    6.16462000E-01 
S    1    1.000000
   1.82773000E+00    2.21006000E-01 
SP   3    1.000000
   2.09642000E+01    1.14660000E-01   4.02487000E-02 
   4.80331000E+00    9.19999000E-01   2.37594000E-01 
   1.45933000E+00   -3.03068000E-03   8.15854000E-01 
SP   1    1.000000
   4.83456000E-01    1.00000000E+00   1.00000000E+00 
SP   1    1.000000
   1.45585000E-01    1.00000000E+00   1.00000000E+00 
SP   1    1.000000
   4.38000000E-02    1.00000000E+00   1.00000000E+00 
SP   1    1.000000
   1.31927711E-02    1.00000000E+00   1.00000000E+00 
D    1    1.000000
   6.26000000E-01    1.00000000E+00 

12    0
S    3    1.000000
   3.38650000E+01    2.54938000E-02 
   5.09479000E+00    1.90373000E-01 
   1.15879000E+00    8.52161000E-01 
S    1    1.000000
   3.25840000E-01    1.00000000E+00 
S    1    1.000000
   1.02741000E-01    1.00000000E+00 
S    1    1.000000
   3.60000000E-02    1.00000000E+00 
P    1    1.000000
   7.50000000E-01    1.00000000E+00 

[MO]
Sym=X
Ene=0.107607
Spin=Alpha
Occup=1
1    -1.69284468e-09
2    1.15897672e-08
3    -1.22098846e-07
4    2.98419091e-07
5    -4.76208463e-06
6    -1.86035201e-05
7    1.06949313e-05
8    -9.79279627e-07
9    -2.45048116e-06
10    -6.91294553e-17
11    4.97139781e-05
12    1.37410459e-05
13    1.53487227e-05
14    -8.3893634e-16
15    -0.000334593976
16    -2.98554018e-05
17    -0.000200290669
18    -5.08100279e-15
19    0.00206741253
20    0.000440773315
21    -0.000231370166
22    4.94876712e-14
23    0.000666258348
24    0.000276548648
25    4.80858439e-05
26    -1.07349038e-13
27    1.41482344e-05
28    -1.3339781e-17
29    3.57155987e-06
30    -1.50798669e-16
31    -7.91083697e-06
32    3.54998562e-07
33    2.50788082e-05
34    -7.43081002e-06
35    0.000122416326
36    7.90196667e-07
37    1.90389169e-06
38    -2.33163059e-16
39    -1.49548458e-06
40    -7.41528971e-06
41    -0.000162189574
42    -0.00029981883
43    3.05116922e-06
44    -3.13740284e-06
45    1.57386405e-16
46    7.15903276e-06
47    -3.45350323e-08
48    7.50644938e-06
49    0.000118658527
50    -5.13505148e-06
51    -1.04353282e-06
52    -5.3170045e-17
53    -9.1597823e-10
54    2.00566492e-09
55    -5.66649435e-08
56    6.88842887e-08
57    -1.87607108e-06
58    -7.3615036e-06
59    3.7403101e-06
60    -6.02139615e-07
61    5.96917384e-07
62    8.10786913e-16
63    2.10915791e-05
64    5.12258964e-06
65    2.47102531e-06
66    -2.84252596e-15
67    -4.56968854e-05
68    -0.000266371845
69    0.000111053648
70    3.51616987e-15
71    -0.000984642019
72    -0.0011518274
73    0.000125398011
74    1.82329856e-14
75    -0.00107117
76    -0.000245171589
77    -0.000437101083
78    5.26041079e-14
79    -3.11752966e-06
80    4.95504635e-16
81    1.4955326e-06
82    3.41485512e-16
83    5.00497014e-06
84    2.3117348e-09
85    2.05297596e-08
86    7.95334694e-08
87    3.51241778e-07
88    1.46530705e-07
89    -2.17496923e-06
90    2.69619728e-06
91    -1.79784595e-06
92    -5.90689305e-07
93    -6.25836038e-16
94    8.59222028e-06
95    5.85555763e-06
96    1.22850177e-06
97    1.45099288e-15
98    -7.75280728e-05
99    -4.96561412e-05
100    1.93638108e-05
101    -4.88787765e-15
102    -0.000452457953
103    -2.5651038e-05
104    8.50765937e-05
105    6.23858995e-15
106    -0.00248933744
107    -0.000389205499
108    8.59195416e-05
109    -2.06965227e-14
110    1.69952302e-06
111    5.75152271e-17
112    1.12203282e-06
113    3.33578529e-16
114    -6.52081548e-08
115    -7.87193702e-09
116    -1.20478974e-07
117    -2.34443175e-07
118    -3.05081677e-06
119    -6.34081872e-06
120    -0.000112877631
121    -1.47011758e-05
122    3.22210919e-05
123    2.49241983e-05
124    -4.46407042e-16
125    0.000416068845
126    0.000433489921
127    0.00028715614
128    3.15462918e-15
129    -0.000803802594
130    -0.000327021481
131    -0.000212194572
132    -3.99283173e-15
133    -0.000396450742
134    -0.00317678417
135    -0.00166095817
136    7.299194e-14
137    0.000189956396
138    -0.00043987134
139    0.000744592318
140    -6.41073643e-14
141    0.000248846836
142    5.7411006e-16
143    -7.36602946e-05
144    3.98008775e-16
145    0.000112529663
146    0.00104385846
147    0.00794076078
148    0.0389358877
149    0.132510477
150    0.327965298
151    0.155500082
152    0.471306909
153    -0.00155769802
154    -0.000937586976
155    1.0871346e-15
156    0.00493804594
157    0.000723774163
158    0.000434260978
159    -5.65752466e-16
160    -0.000639088492
161    -0.000388899716
162    -0.000223590935
163    6.57346719e-15
164    0.00302017223
165    -0.000151002894
166    -0.000147234711
167    -1.35294006e-14
168    0.00642956615
169    -0.00119546391
170    -0.000375797607
171    -4.18994509e-15
172    -9.17404482e-05
173    6.04657399e-17
174    -0.000107304898
175    -1.79869639e-16
176    -4.55158789e-05
177    -7.82121113e-10
178    2.43582705e-08
179    -9.54001833e-08
180    5.21683123e-07
181    -5.81661453e-06
182    -2.40118573e-05
183    1.69515242e-05
184    -1.73765111e-05
185    1.30733604e-06
186    7.6397706e-16
187    2.40801158e-05
188    5.70486389e-05
189    -8.66669719e-06
190    -4.43150491e-16
191    0.00012309889
192    -4.83530801e-05
193    -5.73130861e-05
194    6.75119176e-15
195    -0.000144626467
196    -9.83826281e-05
197    9.72956965e-05
198    -3.02026444e-14
199    -0.0021754264
200    -0.00283162414
201    5.58871559e-05
202    -2.77127436e-14
203    -1.23810742e-05
204    6.30337323e-16
205    -6.28137544e-06
206    2.5690749e-16
207    2.84253722e-05
208    -1.69360824e-10
209    3.71784637e-09
210    -1.79324208e-08
211    8.09180115e-08
212    -9.34757047e-07
213    -3.68368023e-06
214    2.36128483e-06
215    -5.1386792e-07
216    5.77674023e-07
217    3.4355008e-16
218    2.62324459e-06
219    4.0843156e-06
220    -2.61643888e-06
221    -3.47724752e-15
222    0.000117881085
223    9.70240399e-05
224    3.27089168e-05
225    5.55918816e-15
226    0.000667985572
227    0.000250172266
228    3.27463214e-05
229    -3.14777258e-14
230    2.4950792e-05
231    0.000256247364
232    -0.000121989459
233    9.76295775e-15
234    -4.01689396e-06
235    8.15696557e-17
236    4.81484203e-07
237    2.40187364e-16
238    -1.41791287e-06
239    1.39435753e-09
240    1.86091627e-08
241    3.94095918e-08
242    3.42911229e-07
243    -1.34294413e-06
244    -1.03358914e-05
245    7.16960066e-06
246    -7.90824948e-06
247    -1.3887865e-05
248    9.59403186e-16
249    7.68674413e-06
250    2.12698369e-05
251    7.06298654e-05
252    -3.96528353e-15
253    0.000178573029
254    -0.000131042206
255    -2.15808702e-05
256    1.0898884e-14
257    -0.00348418926
258    0.00170354603
259    -7.36197344e-05
260    -7.5754417e-14
261    0.000497274213
262    0.000309608511
263    0.000174649593
264    1.22020699e-13
265    3.9722276e-05
266    2.03818733e-16
267    2.144867e-08
268    -1.97261851e-16
269    -3.9668071e-05
270    5.69233747e-06
271    5.35438028e-05
272    -6.9079478e-05
273    -0.000960505526
274    -1.47189547e-05
275    6.04064403e-06
276    -1.37798201e-16
[5D]