[Molden Format]
[Atoms] (Angs)
  C      1    6     -0.00714236     -1.70213747     -0.00000000
  H      2    1     -2.06882847     -1.44022412      0.00000000
  H      3    1     -0.12337987     -2.77567521      0.00000000
  H      4    1      0.04651892      1.98813947     -0.00000000
  C      5    6     -1.21953563      0.40211669      0.00000000
  O      6    8     -2.25921553      1.03043814      0.00000000
  C      7    6      1.28797806      0.34644937     -0.00000000
  O      8    8      2.31273661      1.00537216     -0.00000000
  N      9    7      0.03446295      0.97739857     -0.00000000
  N     10    7     -1.17287765     -0.98229824      0.00000000
  C     11    6      1.20107039     -1.10433419     -0.00000000
  H     12    1      2.11220096     -1.67699125     -0.00000000
[GTO]
1    0
S    1    1.000000
   4.56324000E+03    1.96665000E-03 
S    1    1.000000
   6.82024000E+02    1.52306000E-02 
S    1    1.000000
   1.54973000E+02    7.61269000E-02 
S    1    1.000000
   4.44553000E+01    2.60801000E-01 
S    1    1.000000
   1.30290000E+01    6.16462000E-01 
S    1    1.000000
   1.82773000E+00    2.21006000E-01 
SP   3    1.000000
   2.09642000E+01    1.14660000E-01   4.02487000E-02 
   4.80331000E+00    9.19999000E-01   2.37594000E-01 
   1.45933000E+00   -3.03068000E-03   8.15854000E-01 
SP   1    1.000000
   4.83456000E-01    1.00000000E+00   1.00000000E+00 
SP   1    1.000000
   1.45585000E-01    1.00000000E+00   1.00000000E+00 
SP   1    1.000000
   4.38000000E-02    1.00000000E+00   1.00000000E+00 
SP   1    1.000000
   1.31927711E-02    1.00000000E+00   1.00000000E+00 
D    1    1.000000
   6.26000000E-01    1.00000000E+00 

2    0
S    3    1.000000
   3.38650000E+01    2.54938000E-02 
   5.09479000E+00    1.90373000E-01 
   1.15879000E+00    8.52161000E-01 
S    1    1.000000
   3.25840000E-01    1.00000000E+00 
S    1    1.000000
   1.02741000E-01    1.00000000E+00 
S    1    1.000000
   3.60000000E-02    1.00000000E+00 
P    1    1.000000
   7.50000000E-01    1.00000000E+00 

3    0
S    3    1.000000
   3.38650000E+01    2.54938000E-02 
   5.09479000E+00    1.90373000E-01 
   1.15879000E+00    8.52161000E-01 
S    1    1.000000
   3.25840000E-01    1.00000000E+00 
S    1    1.000000
   1.02741000E-01    1.00000000E+00 
S    1    1.000000
   3.60000000E-02    1.00000000E+00 
P    1    1.000000
   7.50000000E-01    1.00000000E+00 

4    0
S    3    1.000000
   3.38650000E+01    2.54938000E-02 
   5.09479000E+00    1.90373000E-01 
   1.15879000E+00    8.52161000E-01 
S    1    1.000000
   3.25840000E-01    1.00000000E+00 
S    1    1.000000
   1.02741000E-01    1.00000000E+00 
S    1    1.000000
   3.60000000E-02    1.00000000E+00 
P    1    1.000000
   7.50000000E-01    1.00000000E+00 

5    0
S    1    1.000000
   4.56324000E+03    1.96665000E-03 
S    1    1.000000
   6.82024000E+02    1.52306000E-02 
S    1    1.000000
   1.54973000E+02    7.61269000E-02 
S    1    1.000000
   4.44553000E+01    2.60801000E-01 
S    1    1.000000
   1.30290000E+01    6.16462000E-01 
S    1    1.000000
   1.82773000E+00    2.21006000E-01 
SP   3    1.000000
   2.09642000E+01    1.14660000E-01   4.02487000E-02 
   4.80331000E+00    9.19999000E-01   2.37594000E-01 
   1.45933000E+00   -3.03068000E-03   8.15854000E-01 
SP   1    1.000000
   4.83456000E-01    1.00000000E+00   1.00000000E+00 
SP   1    1.000000
   1.45585000E-01    1.00000000E+00   1.00000000E+00 
SP   1    1.000000
   4.38000000E-02    1.00000000E+00   1.00000000E+00 
SP   1    1.000000
   1.31927711E-02    1.00000000E+00   1.00000000E+00 
D    1    1.000000
   6.26000000E-01    1.00000000E+00 

6    0
S    1    1.000000
   8.58850000E+03    1.89515000E-03 
S    1    1.000000
   1.29723000E+03    1.43859000E-02 
S    1    1.000000
   2.99296000E+02    7.07320000E-02 
S    1    1.000000
   8.73771000E+01    2.40001000E-01 
S    1    1.000000
   2.56789000E+01    5.94797000E-01 
S    1    1.000000
   3.74004000E+00    2.80802000E-01 
SP   3    1.000000
   4.21175000E+01    1.13889000E-01   3.65114000E-02 
   9.62837000E+00    9.20811000E-01   2.37153000E-01 
   2.85332000E+00   -3.27447000E-03   8.19702000E-01 
SP   1    1.000000
   9.05661000E-01    1.00000000E+00   1.00000000E+00 
SP   1    1.000000
   2.55611000E-01    1.00000000E+00   1.00000000E+00 
SP   1    1.000000
   8.45000000E-02    1.00000000E+00   1.00000000E+00 
SP   1    1.000000
   2.54518072E-02    1.00000000E+00   1.00000000E+00 
D    1    1.000000
   1.29200000E+00    1.00000000E+00 

7    0
S    1    1.000000
   4.56324000E+03    1.96665000E-03 
S    1    1.000000
   6.82024000E+02    1.52306000E-02 
S    1    1.000000
   1.54973000E+02    7.61269000E-02 
S    1    1.000000
   4.44553000E+01    2.60801000E-01 
S    1    1.000000
   1.30290000E+01    6.16462000E-01 
S    1    1.000000
   1.82773000E+00    2.21006000E-01 
SP   3    1.000000
   2.09642000E+01    1.14660000E-01   4.02487000E-02 
   4.80331000E+00    9.19999000E-01   2.37594000E-01 
   1.45933000E+00   -3.03068000E-03   8.15854000E-01 
SP   1    1.000000
   4.83456000E-01    1.00000000E+00   1.00000000E+00 
SP   1    1.000000
   1.45585000E-01    1.00000000E+00   1.00000000E+00 
SP   1    1.000000
   4.38000000E-02    1.00000000E+00   1.00000000E+00 
SP   1    1.000000
   1.31927711E-02    1.00000000E+00   1.00000000E+00 
D    1    1.000000
   6.26000000E-01    1.00000000E+00 

8    0
S    1    1.000000
   8.58850000E+03    1.89515000E-03 
S    1    1.000000
   1.29723000E+03    1.43859000E-02 
S    1    1.000000
   2.99296000E+02    7.07320000E-02 
S    1    1.000000
   8.73771000E+01    2.40001000E-01 
S    1    1.000000
   2.56789000E+01    5.94797000E-01 
S    1    1.000000
   3.74004000E+00    2.80802000E-01 
SP   3    1.000000
   4.21175000E+01    1.13889000E-01   3.65114000E-02 
   9.62837000E+00    9.20811000E-01   2.37153000E-01 
   2.85332000E+00   -3.27447000E-03   8.19702000E-01 
SP   1    1.000000
   9.05661000E-01    1.00000000E+00   1.00000000E+00 
SP   1    1.000000
   2.55611000E-01    1.00000000E+00   1.00000000E+00 
SP   1    1.000000
   8.45000000E-02    1.00000000E+00   1.00000000E+00 
SP   1    1.000000
   2.54518072E-02    1.00000000E+00   1.00000000E+00 
D    1    1.000000
   1.29200000E+00    1.00000000E+00 

9    0
S    1    1.000000
   6.29348000E+03    1.96979000E-03 
S    1    1.000000
   9.49044000E+02    1.49613000E-02 
S    1    1.000000
   2.18776000E+02    7.35006000E-02 
S    1    1.000000
   6.36916000E+01    2.48937000E-01 
S    1    1.000000
   1.88282000E+01    6.02460000E-01 
S    1    1.000000
   2.72023000E+00    2.56202000E-01 
SP   3    1.000000
   3.06331000E+01    1.11906000E-01   3.83119000E-02 
   7.02614000E+00    9.21666000E-01   2.37403000E-01 
   2.11205000E+00   -2.56919000E-03   8.17592000E-01 
SP   1    1.000000
   6.84009000E-01    1.00000000E+00   1.00000000E+00 
SP   1    1.000000
   2.00878000E-01    1.00000000E+00   1.00000000E+00 
SP   1    1.000000
   6.39000000E-02    1.00000000E+00   1.00000000E+00 
SP   1    1.000000
   1.92469880E-02    1.00000000E+00   1.00000000E+00 
D    1    1.000000
   9.13000000E-01    1.00000000E+00 

10    0
S    1    1.000000
   6.29348000E+03    1.96979000E-03 
S    1    1.000000
   9.49044000E+02    1.49613000E-02 
S    1    1.000000
   2.18776000E+02    7.35006000E-02 
S    1    1.000000
   6.36916000E+01    2.48937000E-01 
S    1    1.000000
   1.88282000E+01    6.02460000E-01 
S    1    1.000000
   2.72023000E+00    2.56202000E-01 
SP   3    1.000000
   3.06331000E+01    1.11906000E-01   3.83119000E-02 
   7.02614000E+00    9.21666000E-01   2.37403000E-01 
   2.11205000E+00   -2.56919000E-03   8.17592000E-01 
SP   1    1.000000
   6.84009000E-01    1.00000000E+00   1.00000000E+00 
SP   1    1.000000
   2.00878000E-01    1.00000000E+00   1.00000000E+00 
SP   1    1.000000
   6.39000000E-02    1.00000000E+00   1.00000000E+00 
SP   1    1.000000
   1.92469880E-02    1.00000000E+00   1.00000000E+00 
D    1    1.000000
   9.13000000E-01    1.00000000E+00 

11    0
S    1    1.000000
   4.56324000E+03    1.96665000E-03 
S    1    1.000000
   6.82024000E+02    1.52306000E-02 
S    1    1.000000
   1.54973000E+02    7.61269000E-02 
S    1    1.000000
   4.44553000E+01    2.60801000E-01 
S    1    1.000000
   1.30290000E+01    6.16462000E-01 
S    1    1.000000
   1.82773000E+00    2.21006000E-01 
SP   3    1.000000
   2.09642000E+01    1.14660000E-01   4.02487000E-02 
   4.80331000E+00    9.19999000E-01   2.37594000E-01 
   1.45933000E+00   -3.03068000E-03   8.15854000E-01 
SP   1    1.000000
   4.83456000E-01    1.00000000E+00   1.00000000E+00 
SP   1    1.000000
   1.45585000E-01    1.00000000E+00   1.00000000E+00 
SP   1    1.000000
   4.38000000E-02    1.00000000E+00   1.00000000E+00 
SP   1    1.000000
   1.31927711E-02    1.00000000E+00   1.00000000E+00 
D    1    1.000000
   6.26000000E-01    1.00000000E+00 

12    0
S    3    1.000000
   3.38650000E+01    2.54938000E-02 
   5.09479000E+00    1.90373000E-01 
   1.15879000E+00    8.52161000E-01 
S    1    1.000000
   3.25840000E-01    1.00000000E+00 
S    1    1.000000
   1.02741000E-01    1.00000000E+00 
S    1    1.000000
   3.60000000E-02    1.00000000E+00 
P    1    1.000000
   7.50000000E-01    1.00000000E+00 

[MO]
Sym=X
Ene=0.540015
Spin=Alpha
Occup=1
1    -1.69278231e-09
2    1.15896352e-08
3    -1.22094998e-07
4    2.98414555e-07
5    -4.76195646e-06
6    -1.8603009e-05
7    1.06946753e-05
8    -9.79404179e-07
9    -2.45043369e-06
10    -6.91890981e-17
11    4.9712484e-05
12    1.37423273e-05
13    1.53483058e-05
14    -8.3913108e-16
15    -0.000334582491
16    -2.98533584e-05
17    -0.00020027926
18    -5.0809567e-15
19    0.0020676339
20    0.000440772888
21    -0.000231276829
22    4.9483954e-14
23    0.00066628255
24    0.000276566816
25    4.80703476e-05
26    -1.07349755e-13
27    1.41488192e-05
28    -1.33317512e-17
29    3.57135121e-06
30    -1.50765069e-16
31    -7.91046945e-06
32    3.54470037e-07
33    2.50796924e-05
34    -7.42888182e-06
35    0.000122408996
36    7.89938158e-07
37    1.90451836e-06
38    -2.33244477e-16
39    -1.49558169e-06
40    -7.41378374e-06
41    -0.000162180994
42    -0.000299760069
43    3.05125565e-06
44    -3.13712809e-06
45    1.5736656e-16
46    7.15860617e-06
47    -3.46083806e-08
48    7.51394595e-06
49    0.000118648877
50    -5.13570861e-06
51    -1.04356774e-06
52    -5.31458949e-17
53    -9.1529192e-10
54    2.01557713e-09
55    -5.66436996e-08
56    6.91321848e-08
57    -1.87552393e-06
58    -7.35225742e-06
59    3.74142101e-06
60    -5.9944264e-07
61    5.95255252e-07
62    8.10597777e-16
63    2.1057297e-05
64    5.15743017e-06
65    2.45006693e-06
66    -2.84245008e-15
67    -4.56284527e-05
68    -0.000266407903
69    0.000111075611
70    3.51568393e-15
71    -0.000984476898
72    -0.00115203521
73    0.000125531624
74    1.82291837e-14
75    -0.00107127707
76    -0.000245179862
77    -0.000437118917
78    5.26036686e-14
79    -3.0987872e-06
80    4.9555185e-16
81    1.50168234e-06
82    3.41569965e-16
83    4.99516516e-06
84    -7.78939731e-08
85    -5.89604936e-07
86    -2.91213705e-06
87    -9.83033056e-06
88    -2.50531253e-05
89    -1.41246182e-05
90    -3.35159081e-05
91    -1.92025418e-06
92    -5.15767668e-07
93    -6.25912173e-16
94    8.21270382e-06
95    5.91261926e-06
96    1.19370597e-06
97    1.45093831e-15
98    -7.74830402e-05
99    -4.96875784e-05
100    1.93830434e-05
101    -4.88827043e-15
102    -0.000452706816
103    -2.56691616e-05
104    8.50875252e-05
105    6.23902402e-15
106    -0.00248991762
107    -0.000389312805
108    8.59727608e-05
109    -2.06968789e-14
110    1.69290791e-06
111    5.75746495e-17
112    1.12781511e-06
113    3.33564291e-16
114    -6.15595065e-08
115    -7.87187494e-09
116    -1.20479125e-07
117    -2.34439299e-07
118    -3.05082181e-06
119    -6.34069057e-06
120    -0.000112877135
121    -1.47014309e-05
122    3.2220936e-05
123    2.49241563e-05
124    -4.46261796e-16
125    0.00041606758
126    0.00043349079
127    0.000287155941
128    3.15455177e-15
129    -0.00080380728
130    -0.00032703969
131    -0.000212206676
132    -3.99209628e-15
133    -0.000396307736
134    -0.00317687017
135    -0.00166098885
136    7.29866676e-14
137    0.000189987768
138    -0.000439884698
139    0.000744611751
140    -6.41108197e-14
141    0.000248846543
142    5.74180113e-16
143    -7.36602554e-05
144    3.98096469e-16
145    0.000112529236
146    0.00104385845
147    0.00794076076
148    0.0389358876
149    0.132510477
150    0.327965298
151    0.155500082
152    0.471306908
153    -0.00155769814
154    -0.000937586959
155    1.08718983e-15
156    0.00493804504
157    0.000723774587
158    0.000434260998
159    -5.65529176e-16
160    -0.000639081372
161    -0.000388904022
162    -0.000223592788
163    6.57338215e-15
164    0.00302020722
165    -0.000151006142
166    -0.000147240256
167    -1.35286816e-14
168    0.00642974926
169    -0.00119549335
170    -0.000375803706
171    -4.18877436e-15
172    -9.17403241e-05
173    6.04785321e-17
174    -0.000107304995
175    -1.7986563e-16
176    -4.55158446e-05
177    -7.82020187e-10
178    2.43563437e-08
179    -9.5390459e-08
180    5.21640735e-07
181    -5.81609157e-06
182    -2.4009735e-05
183    1.69500742e-05
184    -1.7377797e-05
185    1.30745074e-06
186    7.63841136e-16
187    2.40771041e-05
188    5.70528687e-05
189    -8.66665441e-06
190    -4.4270744e-16
191    0.00012309728
192    -4.83541072e-05
193    -5.73116272e-05
194    6.75011044e-15
195    -0.000144641167
196    -9.8379657e-05
197    9.727932e-05
198    -3.01994592e-14
199    -0.00217531698
200    -0.00283180358
201    5.5892739e-05
202    -2.77093504e-14
203    -1.23813739e-05
204    6.30365733e-16
205    -6.28102939e-06
206    2.57001277e-16
207    2.84229496e-05
208    -1.69259908e-10
209    3.71572458e-09
210    -1.7922258e-08
211    8.08716412e-08
212    -9.34198819e-07
213    -3.6814062e-06
214    2.35973123e-06
215    -5.1453641e-07
216    5.7880847e-07
217    3.43318372e-16
218    2.61983811e-06
219    4.08614195e-06
220    -2.62037973e-06
221    -3.47710943e-15
222    0.000117881701
223    9.70234513e-05
224    3.27104018e-05
225    5.55796695e-15
226    0.00066797068
227    0.000250176806
228    3.27473853e-05
229    -3.14748896e-14
230    2.5098417e-05
231    0.000256218206
232    -0.000121930251
233    9.76404683e-15
234    -4.015325e-06
235    8.1553579e-17
236    4.81799734e-07
237    2.40185409e-16
238    -1.41608116e-06
239    1.39435482e-09
240    1.86091413e-08
241    3.94094838e-08
242    3.42911093e-07
243    -1.34293902e-06
244    -1.03358083e-05
245    7.16957825e-06
246    -7.90834829e-06
247    -1.38878611e-05
248    9.59368656e-16
249    7.68674889e-06
250    2.12708746e-05
251    7.06297842e-05
252    -3.96532522e-15
253    0.000178554841
254    -0.000131031084
255    -2.15869659e-05
256    1.08984787e-14
257    -0.0034844255
258    0.00170360162
259    -7.36514817e-05
260    -7.57503562e-14
261    0.000497283068
262    0.000309617015
263    0.000174671286
264    1.22022915e-13
265    3.97218319e-05
266    2.03842483e-16
267    2.1349681e-08
268    -1.97212254e-16
269    -3.96680944e-05
270    5.69229181e-06
271    5.35419268e-05
272    -6.90837296e-05
273    -0.00096051089
274    -1.4718676e-05
275    6.04045065e-06
276    -1.37789071e-16
[5D]