[Molden Format]
[Atoms] (Angs)
  C      1    6     -0.00714236     -1.70213747     -0.00000000
  H      2    1     -2.06882847     -1.44022412      0.00000000
  H      3    1     -0.12337987     -2.77567521      0.00000000
  H      4    1      0.04651892      1.98813947     -0.00000000
  C      5    6     -1.21953563      0.40211669      0.00000000
  O      6    8     -2.25921553      1.03043814      0.00000000
  C      7    6      1.28797806      0.34644937     -0.00000000
  O      8    8      2.31273661      1.00537216     -0.00000000
  N      9    7      0.03446295      0.97739857     -0.00000000
  N     10    7     -1.17287765     -0.98229824      0.00000000
  C     11    6      1.20107039     -1.10433419     -0.00000000
  H     12    1      2.11220096     -1.67699125     -0.00000000
[GTO]
1    0
S    1    1.000000
   4.56324000E+03    1.96665000E-03 
S    1    1.000000
   6.82024000E+02    1.52306000E-02 
S    1    1.000000
   1.54973000E+02    7.61269000E-02 
S    1    1.000000
   4.44553000E+01    2.60801000E-01 
S    1    1.000000
   1.30290000E+01    6.16462000E-01 
S    1    1.000000
   1.82773000E+00    2.21006000E-01 
SP   3    1.000000
   2.09642000E+01    1.14660000E-01   4.02487000E-02 
   4.80331000E+00    9.19999000E-01   2.37594000E-01 
   1.45933000E+00   -3.03068000E-03   8.15854000E-01 
SP   1    1.000000
   4.83456000E-01    1.00000000E+00   1.00000000E+00 
SP   1    1.000000
   1.45585000E-01    1.00000000E+00   1.00000000E+00 
SP   1    1.000000
   4.38000000E-02    1.00000000E+00   1.00000000E+00 
SP   1    1.000000
   1.31927711E-02    1.00000000E+00   1.00000000E+00 
D    1    1.000000
   6.26000000E-01    1.00000000E+00 

2    0
S    3    1.000000
   3.38650000E+01    2.54938000E-02 
   5.09479000E+00    1.90373000E-01 
   1.15879000E+00    8.52161000E-01 
S    1    1.000000
   3.25840000E-01    1.00000000E+00 
S    1    1.000000
   1.02741000E-01    1.00000000E+00 
S    1    1.000000
   3.60000000E-02    1.00000000E+00 
P    1    1.000000
   7.50000000E-01    1.00000000E+00 

3    0
S    3    1.000000
   3.38650000E+01    2.54938000E-02 
   5.09479000E+00    1.90373000E-01 
   1.15879000E+00    8.52161000E-01 
S    1    1.000000
   3.25840000E-01    1.00000000E+00 
S    1    1.000000
   1.02741000E-01    1.00000000E+00 
S    1    1.000000
   3.60000000E-02    1.00000000E+00 
P    1    1.000000
   7.50000000E-01    1.00000000E+00 

4    0
S    3    1.000000
   3.38650000E+01    2.54938000E-02 
   5.09479000E+00    1.90373000E-01 
   1.15879000E+00    8.52161000E-01 
S    1    1.000000
   3.25840000E-01    1.00000000E+00 
S    1    1.000000
   1.02741000E-01    1.00000000E+00 
S    1    1.000000
   3.60000000E-02    1.00000000E+00 
P    1    1.000000
   7.50000000E-01    1.00000000E+00 

5    0
S    1    1.000000
   4.56324000E+03    1.96665000E-03 
S    1    1.000000
   6.82024000E+02    1.52306000E-02 
S    1    1.000000
   1.54973000E+02    7.61269000E-02 
S    1    1.000000
   4.44553000E+01    2.60801000E-01 
S    1    1.000000
   1.30290000E+01    6.16462000E-01 
S    1    1.000000
   1.82773000E+00    2.21006000E-01 
SP   3    1.000000
   2.09642000E+01    1.14660000E-01   4.02487000E-02 
   4.80331000E+00    9.19999000E-01   2.37594000E-01 
   1.45933000E+00   -3.03068000E-03   8.15854000E-01 
SP   1    1.000000
   4.83456000E-01    1.00000000E+00   1.00000000E+00 
SP   1    1.000000
   1.45585000E-01    1.00000000E+00   1.00000000E+00 
SP   1    1.000000
   4.38000000E-02    1.00000000E+00   1.00000000E+00 
SP   1    1.000000
   1.31927711E-02    1.00000000E+00   1.00000000E+00 
D    1    1.000000
   6.26000000E-01    1.00000000E+00 

6    0
S    1    1.000000
   8.58850000E+03    1.89515000E-03 
S    1    1.000000
   1.29723000E+03    1.43859000E-02 
S    1    1.000000
   2.99296000E+02    7.07320000E-02 
S    1    1.000000
   8.73771000E+01    2.40001000E-01 
S    1    1.000000
   2.56789000E+01    5.94797000E-01 
S    1    1.000000
   3.74004000E+00    2.80802000E-01 
SP   3    1.000000
   4.21175000E+01    1.13889000E-01   3.65114000E-02 
   9.62837000E+00    9.20811000E-01   2.37153000E-01 
   2.85332000E+00   -3.27447000E-03   8.19702000E-01 
SP   1    1.000000
   9.05661000E-01    1.00000000E+00   1.00000000E+00 
SP   1    1.000000
   2.55611000E-01    1.00000000E+00   1.00000000E+00 
SP   1    1.000000
   8.45000000E-02    1.00000000E+00   1.00000000E+00 
SP   1    1.000000
   2.54518072E-02    1.00000000E+00   1.00000000E+00 
D    1    1.000000
   1.29200000E+00    1.00000000E+00 

7    0
S    1    1.000000
   4.56324000E+03    1.96665000E-03 
S    1    1.000000
   6.82024000E+02    1.52306000E-02 
S    1    1.000000
   1.54973000E+02    7.61269000E-02 
S    1    1.000000
   4.44553000E+01    2.60801000E-01 
S    1    1.000000
   1.30290000E+01    6.16462000E-01 
S    1    1.000000
   1.82773000E+00    2.21006000E-01 
SP   3    1.000000
   2.09642000E+01    1.14660000E-01   4.02487000E-02 
   4.80331000E+00    9.19999000E-01   2.37594000E-01 
   1.45933000E+00   -3.03068000E-03   8.15854000E-01 
SP   1    1.000000
   4.83456000E-01    1.00000000E+00   1.00000000E+00 
SP   1    1.000000
   1.45585000E-01    1.00000000E+00   1.00000000E+00 
SP   1    1.000000
   4.38000000E-02    1.00000000E+00   1.00000000E+00 
SP   1    1.000000
   1.31927711E-02    1.00000000E+00   1.00000000E+00 
D    1    1.000000
   6.26000000E-01    1.00000000E+00 

8    0
S    1    1.000000
   8.58850000E+03    1.89515000E-03 
S    1    1.000000
   1.29723000E+03    1.43859000E-02 
S    1    1.000000
   2.99296000E+02    7.07320000E-02 
S    1    1.000000
   8.73771000E+01    2.40001000E-01 
S    1    1.000000
   2.56789000E+01    5.94797000E-01 
S    1    1.000000
   3.74004000E+00    2.80802000E-01 
SP   3    1.000000
   4.21175000E+01    1.13889000E-01   3.65114000E-02 
   9.62837000E+00    9.20811000E-01   2.37153000E-01 
   2.85332000E+00   -3.27447000E-03   8.19702000E-01 
SP   1    1.000000
   9.05661000E-01    1.00000000E+00   1.00000000E+00 
SP   1    1.000000
   2.55611000E-01    1.00000000E+00   1.00000000E+00 
SP   1    1.000000
   8.45000000E-02    1.00000000E+00   1.00000000E+00 
SP   1    1.000000
   2.54518072E-02    1.00000000E+00   1.00000000E+00 
D    1    1.000000
   1.29200000E+00    1.00000000E+00 

9    0
S    1    1.000000
   6.29348000E+03    1.96979000E-03 
S    1    1.000000
   9.49044000E+02    1.49613000E-02 
S    1    1.000000
   2.18776000E+02    7.35006000E-02 
S    1    1.000000
   6.36916000E+01    2.48937000E-01 
S    1    1.000000
   1.88282000E+01    6.02460000E-01 
S    1    1.000000
   2.72023000E+00    2.56202000E-01 
SP   3    1.000000
   3.06331000E+01    1.11906000E-01   3.83119000E-02 
   7.02614000E+00    9.21666000E-01   2.37403000E-01 
   2.11205000E+00   -2.56919000E-03   8.17592000E-01 
SP   1    1.000000
   6.84009000E-01    1.00000000E+00   1.00000000E+00 
SP   1    1.000000
   2.00878000E-01    1.00000000E+00   1.00000000E+00 
SP   1    1.000000
   6.39000000E-02    1.00000000E+00   1.00000000E+00 
SP   1    1.000000
   1.92469880E-02    1.00000000E+00   1.00000000E+00 
D    1    1.000000
   9.13000000E-01    1.00000000E+00 

10    0
S    1    1.000000
   6.29348000E+03    1.96979000E-03 
S    1    1.000000
   9.49044000E+02    1.49613000E-02 
S    1    1.000000
   2.18776000E+02    7.35006000E-02 
S    1    1.000000
   6.36916000E+01    2.48937000E-01 
S    1    1.000000
   1.88282000E+01    6.02460000E-01 
S    1    1.000000
   2.72023000E+00    2.56202000E-01 
SP   3    1.000000
   3.06331000E+01    1.11906000E-01   3.83119000E-02 
   7.02614000E+00    9.21666000E-01   2.37403000E-01 
   2.11205000E+00   -2.56919000E-03   8.17592000E-01 
SP   1    1.000000
   6.84009000E-01    1.00000000E+00   1.00000000E+00 
SP   1    1.000000
   2.00878000E-01    1.00000000E+00   1.00000000E+00 
SP   1    1.000000
   6.39000000E-02    1.00000000E+00   1.00000000E+00 
SP   1    1.000000
   1.92469880E-02    1.00000000E+00   1.00000000E+00 
D    1    1.000000
   9.13000000E-01    1.00000000E+00 

11    0
S    1    1.000000
   4.56324000E+03    1.96665000E-03 
S    1    1.000000
   6.82024000E+02    1.52306000E-02 
S    1    1.000000
   1.54973000E+02    7.61269000E-02 
S    1    1.000000
   4.44553000E+01    2.60801000E-01 
S    1    1.000000
   1.30290000E+01    6.16462000E-01 
S    1    1.000000
   1.82773000E+00    2.21006000E-01 
SP   3    1.000000
   2.09642000E+01    1.14660000E-01   4.02487000E-02 
   4.80331000E+00    9.19999000E-01   2.37594000E-01 
   1.45933000E+00   -3.03068000E-03   8.15854000E-01 
SP   1    1.000000
   4.83456000E-01    1.00000000E+00   1.00000000E+00 
SP   1    1.000000
   1.45585000E-01    1.00000000E+00   1.00000000E+00 
SP   1    1.000000
   4.38000000E-02    1.00000000E+00   1.00000000E+00 
SP   1    1.000000
   1.31927711E-02    1.00000000E+00   1.00000000E+00 
D    1    1.000000
   6.26000000E-01    1.00000000E+00 

12    0
S    3    1.000000
   3.38650000E+01    2.54938000E-02 
   5.09479000E+00    1.90373000E-01 
   1.15879000E+00    8.52161000E-01 
S    1    1.000000
   3.25840000E-01    1.00000000E+00 
S    1    1.000000
   1.02741000E-01    1.00000000E+00 
S    1    1.000000
   3.60000000E-02    1.00000000E+00 
P    1    1.000000
   7.50000000E-01    1.00000000E+00 

[MO]
Sym=X
Ene=0.000219
Spin=Alpha
Occup=1
1    1.81068191e-09
2    -1.17099056e-08
3    1.29086145e-07
4    -3.04163805e-07
5    4.98356658e-06
6    1.94928215e-05
7    -1.11181954e-05
8    6.73656502e-07
9    2.52144192e-06
10    -7.07754067e-17
11    -5.23892996e-05
12    -1.05375552e-05
13    -1.60713822e-05
14    3.7224823e-16
15    0.000355927232
16    3.41291039e-05
17    0.000223610677
18    5.10634336e-15
19    -0.00151896076
20    -0.000434662168
21    0.000444835776
22    -5.73398296e-14
23    -0.00059919872
24    -0.000229811792
25    -8.33708902e-05
26    1.03952192e-13
27    -1.25593536e-05
28    3.18103699e-17
29    -3.99951811e-06
30    2.26556194e-16
31    8.63853208e-06
32    -1.57916599e-06
33    -2.26168532e-05
34    1.17979788e-05
35    -0.00013749955
36    -1.37901627e-06
37    -4.14926623e-07
38    3.99409014e-17
39    1.24540355e-06
40    1.08001701e-05
41    0.000179541848
42    0.000431725136
43    -2.80085065e-06
44    3.7261696e-06
45    -2.01028853e-16
46    -8.03630663e-06
47    -1.3670492e-07
48    1.00592811e-05
49    -0.00013919971
50    3.52311308e-06
51    9.45463109e-07
52    1.08510753e-16
53    2.498272e-09
54    2.10926291e-08
55    1.05186433e-07
56    5.09086599e-07
57    3.11906206e-06
58    2.87589266e-05
59    -1.09489308e-06
60    6.86835964e-06
61    -4.4551151e-06
62    -1.23783963e-15
63    -0.000100526981
64    7.60347598e-05
65    -5.12018668e-05
66    2.97327095e-15
67    0.000204204759
68    0.000178167942
69    -5.81548075e-05
70    -4.59028215e-15
71    0.00135300822
72    0.000649699026
73    0.000187543758
74    -2.67863073e-14
75    0.000804748459
76    0.000221966353
77    0.000388555124
78    -5.27783055e-14
79    4.66814542e-05
80    -3.77646966e-16
81    1.28391722e-05
82    -1.3945557e-16
83    -2.77407145e-05
84    -0.000186642956
85    -0.00141981884
86    -0.00696177011
87    -0.0236931182
88    -0.0586403717
89    -0.0278049912
90    -0.0842691245
91    -0.000283078129
92    0.000174925685
93    4.38579611e-16
94    -0.000891597953
95    0.000127022663
96    -8.21793873e-05
97    -1.55459191e-15
98    0.000181070185
99    -2.42995741e-05
100    2.57029954e-05
101    3.89505642e-15
102    -0.00013394807
103    -1.69365208e-05
104    -5.82672131e-05
105    -5.12792067e-15
106    0.00109912727
107    0.000133226541
108    3.93079749e-05
109    1.95341155e-14
110    -1.70656435e-05
111    8.16894345e-17
112    1.23515899e-05
113    -3.61332824e-16
114    8.55465225e-06
115    7.88947758e-09
116    1.18185185e-07
117    2.39681906e-07
118    2.98989955e-06
119    6.53679033e-06
120    0.000112211893
121    1.3870504e-05
122    -3.20642969e-05
123    -2.46200797e-05
124    7.77201458e-16
125    -0.000412304153
126    -0.000424478369
127    -0.000282989259
128    -3.28390472e-15
129    0.000779941821
130    0.000279377666
131    0.000180606895
132    5.63987183e-15
133    0.00072283963
134    0.00292545266
135    0.00156279032
136    -8.40842952e-14
137    -0.000113890497
138    0.000401695597
139    -0.000687367213
140    5.50330513e-14
141    -0.000245517555
142    -4.01838841e-16
143    7.2563934e-05
144    -1.8752673e-16
145    -0.000111709395
146    -0.00102703661
147    -0.00781279567
148    -0.0383084315
149    -0.130375077
150    -0.322679964
151    -0.152993536
152    -0.463712197
153    0.00153229689
154    0.000922512035
155    -9.41069594e-16
156    -0.00486052556
157    -0.000711118471
158    -0.000427212687
159    1.07623211e-15
160    0.000645354148
161    0.000372609721
162    0.000215674935
163    -6.66537186e-15
164    -0.00289005363
165    0.000141009312
166    0.00013195752
167    1.49845617e-14
168    -0.00589980762
169    0.00110768592
170    0.000355546257
171    6.84670016e-15
172    9.05501633e-05
173    -2.97232181e-17
174    0.000105349017
175    1.86297545e-16
176    4.48618858e-05
177    1.00436879e-09
178    -2.84493596e-08
179    1.1649104e-07
180    -6.11910851e-07
181    6.93979023e-06
182    2.85633023e-05
183    -2.00525345e-05
184    1.41040603e-05
185    -1.019345e-06
186    -1.0679608e-15
187    -3.070014e-05
188    -4.62859538e-05
189    8.6265239e-06
190    1.46699624e-15
191    -0.000124858865
192    4.51834322e-05
193    5.97839439e-05
194    -9.15861526e-15
195    0.00010808656
196    0.000103710427
197    -0.000133835724
198    3.71277438e-14
199    0.00239497994
200    0.00236843044
201    -4.1994304e-05
202    3.51620337e-14
203    1.14840766e-05
204    -5.54065366e-16
205    6.98536745e-06
206    -3.4520124e-17
207    -3.36045123e-05
208    4.01464512e-10
209    -8.59537012e-09
210    4.12925062e-08
211    -1.87518363e-07
212    2.21869703e-06
213    8.91601747e-06
214    -5.93848409e-06
215    -1.0500103e-06
216    2.07152549e-06
217    -8.77202208e-16
218    -1.05079175e-05
219    2.31479588e-07
220    -6.59619208e-06
221    3.74252632e-15
222    -0.000114548054
223    -9.68295913e-05
224    -2.87261318e-05
225    -8.31134183e-15
226    -0.000691872822
227    -0.000235573315
228    -2.97425965e-05
229    3.75701748e-14
230    0.000318978423
231    -0.000319965636
232    0.000257801831
233    -7.07122961e-15
234    7.60314253e-06
235    -1.17665355e-16
236    2.60526587e-07
237    -2.40863959e-16
238    5.65749144e-06
239    -1.37819072e-09
240    -1.83589245e-08
241    -3.90256716e-08
242    -3.37698284e-07
243    1.333195e-06
244    1.03625897e-05
245    -7.10616617e-06
246    7.55082856e-06
247    1.36731231e-05
248    -1.02428735e-15
249    -7.5517259e-06
250    -1.8512002e-05
251    -6.96801262e-05
252    3.80433981e-15
253    -0.000218018648
254    0.000154809262
255    7.04807458e-06
256    -1.16664222e-14
257    0.0028782909
258    -0.00154673251
259    -1.44369965e-06
260    8.39826194e-14
261    -0.000468652859
262    -0.000284829411
263    -0.000121353396
264    -1.14895108e-13
265    -4.01152406e-05
266    -1.45267191e-16
267    -2.51452806e-07
268    3.09496755e-16
269    3.89741895e-05
270    -5.70681867e-06
271    -5.70461484e-05
272    5.80722351e-05
273    0.000932538015
274    1.51301501e-05
275    -6.39325817e-06
276    1.56823995e-16
[5D]