[Molden Format]
[Atoms] (Angs)
  C      1    6     -0.00714236     -1.70213747     -0.00000000
  H      2    1     -2.06882847     -1.44022412      0.00000000
  H      3    1     -0.12337987     -2.77567521      0.00000000
  H      4    1      0.04651892      1.98813947     -0.00000000
  C      5    6     -1.21953563      0.40211669      0.00000000
  O      6    8     -2.25921553      1.03043814      0.00000000
  C      7    6      1.28797806      0.34644937     -0.00000000
  O      8    8      2.31273661      1.00537216     -0.00000000
  N      9    7      0.03446295      0.97739857     -0.00000000
  N     10    7     -1.17287765     -0.98229824      0.00000000
  C     11    6      1.20107039     -1.10433419     -0.00000000
  H     12    1      2.11220096     -1.67699125     -0.00000000
[GTO]
1    0
S    1    1.000000
   4.56324000E+03    1.96665000E-03 
S    1    1.000000
   6.82024000E+02    1.52306000E-02 
S    1    1.000000
   1.54973000E+02    7.61269000E-02 
S    1    1.000000
   4.44553000E+01    2.60801000E-01 
S    1    1.000000
   1.30290000E+01    6.16462000E-01 
S    1    1.000000
   1.82773000E+00    2.21006000E-01 
SP   3    1.000000
   2.09642000E+01    1.14660000E-01   4.02487000E-02 
   4.80331000E+00    9.19999000E-01   2.37594000E-01 
   1.45933000E+00   -3.03068000E-03   8.15854000E-01 
SP   1    1.000000
   4.83456000E-01    1.00000000E+00   1.00000000E+00 
SP   1    1.000000
   1.45585000E-01    1.00000000E+00   1.00000000E+00 
SP   1    1.000000
   4.38000000E-02    1.00000000E+00   1.00000000E+00 
SP   1    1.000000
   1.31927711E-02    1.00000000E+00   1.00000000E+00 
D    1    1.000000
   6.26000000E-01    1.00000000E+00 

2    0
S    3    1.000000
   3.38650000E+01    2.54938000E-02 
   5.09479000E+00    1.90373000E-01 
   1.15879000E+00    8.52161000E-01 
S    1    1.000000
   3.25840000E-01    1.00000000E+00 
S    1    1.000000
   1.02741000E-01    1.00000000E+00 
S    1    1.000000
   3.60000000E-02    1.00000000E+00 
P    1    1.000000
   7.50000000E-01    1.00000000E+00 

3    0
S    3    1.000000
   3.38650000E+01    2.54938000E-02 
   5.09479000E+00    1.90373000E-01 
   1.15879000E+00    8.52161000E-01 
S    1    1.000000
   3.25840000E-01    1.00000000E+00 
S    1    1.000000
   1.02741000E-01    1.00000000E+00 
S    1    1.000000
   3.60000000E-02    1.00000000E+00 
P    1    1.000000
   7.50000000E-01    1.00000000E+00 

4    0
S    3    1.000000
   3.38650000E+01    2.54938000E-02 
   5.09479000E+00    1.90373000E-01 
   1.15879000E+00    8.52161000E-01 
S    1    1.000000
   3.25840000E-01    1.00000000E+00 
S    1    1.000000
   1.02741000E-01    1.00000000E+00 
S    1    1.000000
   3.60000000E-02    1.00000000E+00 
P    1    1.000000
   7.50000000E-01    1.00000000E+00 

5    0
S    1    1.000000
   4.56324000E+03    1.96665000E-03 
S    1    1.000000
   6.82024000E+02    1.52306000E-02 
S    1    1.000000
   1.54973000E+02    7.61269000E-02 
S    1    1.000000
   4.44553000E+01    2.60801000E-01 
S    1    1.000000
   1.30290000E+01    6.16462000E-01 
S    1    1.000000
   1.82773000E+00    2.21006000E-01 
SP   3    1.000000
   2.09642000E+01    1.14660000E-01   4.02487000E-02 
   4.80331000E+00    9.19999000E-01   2.37594000E-01 
   1.45933000E+00   -3.03068000E-03   8.15854000E-01 
SP   1    1.000000
   4.83456000E-01    1.00000000E+00   1.00000000E+00 
SP   1    1.000000
   1.45585000E-01    1.00000000E+00   1.00000000E+00 
SP   1    1.000000
   4.38000000E-02    1.00000000E+00   1.00000000E+00 
SP   1    1.000000
   1.31927711E-02    1.00000000E+00   1.00000000E+00 
D    1    1.000000
   6.26000000E-01    1.00000000E+00 

6    0
S    1    1.000000
   8.58850000E+03    1.89515000E-03 
S    1    1.000000
   1.29723000E+03    1.43859000E-02 
S    1    1.000000
   2.99296000E+02    7.07320000E-02 
S    1    1.000000
   8.73771000E+01    2.40001000E-01 
S    1    1.000000
   2.56789000E+01    5.94797000E-01 
S    1    1.000000
   3.74004000E+00    2.80802000E-01 
SP   3    1.000000
   4.21175000E+01    1.13889000E-01   3.65114000E-02 
   9.62837000E+00    9.20811000E-01   2.37153000E-01 
   2.85332000E+00   -3.27447000E-03   8.19702000E-01 
SP   1    1.000000
   9.05661000E-01    1.00000000E+00   1.00000000E+00 
SP   1    1.000000
   2.55611000E-01    1.00000000E+00   1.00000000E+00 
SP   1    1.000000
   8.45000000E-02    1.00000000E+00   1.00000000E+00 
SP   1    1.000000
   2.54518072E-02    1.00000000E+00   1.00000000E+00 
D    1    1.000000
   1.29200000E+00    1.00000000E+00 

7    0
S    1    1.000000
   4.56324000E+03    1.96665000E-03 
S    1    1.000000
   6.82024000E+02    1.52306000E-02 
S    1    1.000000
   1.54973000E+02    7.61269000E-02 
S    1    1.000000
   4.44553000E+01    2.60801000E-01 
S    1    1.000000
   1.30290000E+01    6.16462000E-01 
S    1    1.000000
   1.82773000E+00    2.21006000E-01 
SP   3    1.000000
   2.09642000E+01    1.14660000E-01   4.02487000E-02 
   4.80331000E+00    9.19999000E-01   2.37594000E-01 
   1.45933000E+00   -3.03068000E-03   8.15854000E-01 
SP   1    1.000000
   4.83456000E-01    1.00000000E+00   1.00000000E+00 
SP   1    1.000000
   1.45585000E-01    1.00000000E+00   1.00000000E+00 
SP   1    1.000000
   4.38000000E-02    1.00000000E+00   1.00000000E+00 
SP   1    1.000000
   1.31927711E-02    1.00000000E+00   1.00000000E+00 
D    1    1.000000
   6.26000000E-01    1.00000000E+00 

8    0
S    1    1.000000
   8.58850000E+03    1.89515000E-03 
S    1    1.000000
   1.29723000E+03    1.43859000E-02 
S    1    1.000000
   2.99296000E+02    7.07320000E-02 
S    1    1.000000
   8.73771000E+01    2.40001000E-01 
S    1    1.000000
   2.56789000E+01    5.94797000E-01 
S    1    1.000000
   3.74004000E+00    2.80802000E-01 
SP   3    1.000000
   4.21175000E+01    1.13889000E-01   3.65114000E-02 
   9.62837000E+00    9.20811000E-01   2.37153000E-01 
   2.85332000E+00   -3.27447000E-03   8.19702000E-01 
SP   1    1.000000
   9.05661000E-01    1.00000000E+00   1.00000000E+00 
SP   1    1.000000
   2.55611000E-01    1.00000000E+00   1.00000000E+00 
SP   1    1.000000
   8.45000000E-02    1.00000000E+00   1.00000000E+00 
SP   1    1.000000
   2.54518072E-02    1.00000000E+00   1.00000000E+00 
D    1    1.000000
   1.29200000E+00    1.00000000E+00 

9    0
S    1    1.000000
   6.29348000E+03    1.96979000E-03 
S    1    1.000000
   9.49044000E+02    1.49613000E-02 
S    1    1.000000
   2.18776000E+02    7.35006000E-02 
S    1    1.000000
   6.36916000E+01    2.48937000E-01 
S    1    1.000000
   1.88282000E+01    6.02460000E-01 
S    1    1.000000
   2.72023000E+00    2.56202000E-01 
SP   3    1.000000
   3.06331000E+01    1.11906000E-01   3.83119000E-02 
   7.02614000E+00    9.21666000E-01   2.37403000E-01 
   2.11205000E+00   -2.56919000E-03   8.17592000E-01 
SP   1    1.000000
   6.84009000E-01    1.00000000E+00   1.00000000E+00 
SP   1    1.000000
   2.00878000E-01    1.00000000E+00   1.00000000E+00 
SP   1    1.000000
   6.39000000E-02    1.00000000E+00   1.00000000E+00 
SP   1    1.000000
   1.92469880E-02    1.00000000E+00   1.00000000E+00 
D    1    1.000000
   9.13000000E-01    1.00000000E+00 

10    0
S    1    1.000000
   6.29348000E+03    1.96979000E-03 
S    1    1.000000
   9.49044000E+02    1.49613000E-02 
S    1    1.000000
   2.18776000E+02    7.35006000E-02 
S    1    1.000000
   6.36916000E+01    2.48937000E-01 
S    1    1.000000
   1.88282000E+01    6.02460000E-01 
S    1    1.000000
   2.72023000E+00    2.56202000E-01 
SP   3    1.000000
   3.06331000E+01    1.11906000E-01   3.83119000E-02 
   7.02614000E+00    9.21666000E-01   2.37403000E-01 
   2.11205000E+00   -2.56919000E-03   8.17592000E-01 
SP   1    1.000000
   6.84009000E-01    1.00000000E+00   1.00000000E+00 
SP   1    1.000000
   2.00878000E-01    1.00000000E+00   1.00000000E+00 
SP   1    1.000000
   6.39000000E-02    1.00000000E+00   1.00000000E+00 
SP   1    1.000000
   1.92469880E-02    1.00000000E+00   1.00000000E+00 
D    1    1.000000
   9.13000000E-01    1.00000000E+00 

11    0
S    1    1.000000
   4.56324000E+03    1.96665000E-03 
S    1    1.000000
   6.82024000E+02    1.52306000E-02 
S    1    1.000000
   1.54973000E+02    7.61269000E-02 
S    1    1.000000
   4.44553000E+01    2.60801000E-01 
S    1    1.000000
   1.30290000E+01    6.16462000E-01 
S    1    1.000000
   1.82773000E+00    2.21006000E-01 
SP   3    1.000000
   2.09642000E+01    1.14660000E-01   4.02487000E-02 
   4.80331000E+00    9.19999000E-01   2.37594000E-01 
   1.45933000E+00   -3.03068000E-03   8.15854000E-01 
SP   1    1.000000
   4.83456000E-01    1.00000000E+00   1.00000000E+00 
SP   1    1.000000
   1.45585000E-01    1.00000000E+00   1.00000000E+00 
SP   1    1.000000
   4.38000000E-02    1.00000000E+00   1.00000000E+00 
SP   1    1.000000
   1.31927711E-02    1.00000000E+00   1.00000000E+00 
D    1    1.000000
   6.26000000E-01    1.00000000E+00 

12    0
S    3    1.000000
   3.38650000E+01    2.54938000E-02 
   5.09479000E+00    1.90373000E-01 
   1.15879000E+00    8.52161000E-01 
S    1    1.000000
   3.25840000E-01    1.00000000E+00 
S    1    1.000000
   1.02741000E-01    1.00000000E+00 
S    1    1.000000
   3.60000000E-02    1.00000000E+00 
P    1    1.000000
   7.50000000E-01    1.00000000E+00 

[MO]
Sym=X
Ene=0.925773
Spin=Alpha
Occup=1
1    1.9797764e-09
2    -5.08464336e-08
3    6.47300159e-08
4    -1.72037203e-06
5    -6.88571916e-06
6    3.48321455e-06
7    1.82072008e-06
8    -7.04335866e-07
9    2.78388767e-16
10    1.98443901e-05
11    -1.79762122e-05
12    6.07866496e-06
13    1.46443902e-15
14    -0.000144811733
15    -2.68451768e-05
16    -0.000149288544
17    -2.28720516e-15
18    -0.00294936131
19    1.12471643e-05
20    -0.00122286352
21    4.67744042e-14
22    -0.000325473682
23    -0.000238529618
24    0.00019920719
25    8.20953699e-15
26    -8.07598786e-06
27    -4.14522994e-16
28    2.65363768e-06
29    8.29310571e-16
30    -5.15500166e-06
31    7.12319645e-06
32    -1.36013241e-05
33    -3.60183823e-05
34    9.23294697e-05
35    3.27791754e-06
36    -8.60654233e-06
37    -7.67144329e-16
38    1.39335049e-06
39    -2.0593544e-05
40    -0.000111827328
41    -0.000758955299
42    -1.1185558e-06
43    -3.82748821e-06
44    -3.91674958e-17
45    5.86609533e-06
46    -5.2477336e-08
47    -9.57445582e-05
48    0.000120444607
49    8.29698015e-06
50    2.42215834e-07
51    3.20987691e-17
52    -9.22431829e-09
53    -1.27342077e-07
54    -2.97714126e-07
55    -3.2007327e-06
56    -8.26911899e-06
57    -0.000128639029
58    -1.19263779e-05
59    -3.18554592e-05
60    2.08737075e-05
61    -4.16636995e-17
62    0.000462741299
63    -0.000473133351
64    0.000286590118
65    -5.81383354e-15
66    -0.000906811788
67    0.000492225231
68    -0.000320294411
69    1.28210542e-16
70    -0.00216891763
71    0.00280399682
72    -0.00177118042
73    4.51113552e-14
74    0.00147157992
75    0.000121362005
76    0.000244323146
77    4.04913443e-15
78    -0.000255468399
79    -1.98333059e-16
80    -8.32603387e-05
81    3.33149188e-16
82    0.000129494726
83    0.00104387172
84    0.00794083452
85    0.0389364462
86    0.132511208
87    0.327972709
88    0.155488434
89    0.471317181
90    0.00167649129
91    -0.000963233192
92    -8.76537979e-16
93    0.00490449826
94    -0.000792918715
95    0.000454718748
96    -2.71877733e-15
97    -0.000593533037
98    0.000440585969
99    -0.000246075476
100    -3.24017467e-16
101    0.00331594059
102    0.000227968458
103    -0.000154900081
104    -1.1662418e-14
105    0.00775703513
106    0.00143880448
107    -0.000702890204
108    8.53727619e-16
109    9.18594961e-05
110    -3.60737875e-16
111    -9.00459155e-05
112    -3.21162285e-16
113    -5.38863863e-05
114    -8.99469599e-10
115    2.14894342e-09
116    -5.60619534e-08
117    7.2130278e-08
118    -1.85488823e-06
119    -7.19773943e-06
120    3.69540114e-06
121    2.23791729e-06
122    5.62331135e-07
123    3.43094525e-16
124    1.85419697e-05
125    -1.24858781e-05
126    3.35130472e-06
127    5.26022908e-15
128    6.8486626e-05
129    0.00024710072
130    0.000165874662
131    -4.69023528e-15
132    -0.00197267434
133    0.00118615418
134    0.000441942731
135    7.0926555e-14
136    -0.000440575213
137    0.000189212759
138    -0.000273195956
139    4.48912783e-14
140    3.7605642e-06
141    -3.66133227e-16
142    -5.2404909e-07
143    -8.10072994e-17
144    5.77616255e-06
145    1.21166355e-09
146    1.38215007e-08
147    3.4691066e-08
148    2.44287818e-07
149    -5.2277632e-07
150    -3.70045021e-06
151    3.10547408e-06
152    1.76772699e-06
153    -1.32639888e-07
154    1.10558546e-15
155    1.21818045e-05
156    -5.97994997e-06
157    -4.18481798e-07
158    4.297466e-16
159    -9.78784507e-05
160    5.94140037e-05
161    2.59003077e-05
162    6.23718729e-15
163    -0.000475520591
164    3.96815412e-05
165    7.43322156e-05
166    -4.28987692e-15
167    -0.00250359058
168    0.000400525385
169    8.26080616e-05
170    -1.30360325e-14
171    -1.72052127e-06
172    -4.99636612e-16
173    1.28238584e-06
174    -5.61809835e-16
175    -4.52892349e-07
176    -9.99343677e-10
177    2.93113769e-08
178    -1.18816459e-07
179    6.2890454e-07
180    -7.0584595e-06
181    -2.91391797e-05
182    2.01117534e-05
183    1.72358437e-05
184    -1.13530815e-06
185    2.23451513e-15
186    4.06390922e-05
187    -5.84268999e-05
188    -1.47214044e-06
189    -5.16083827e-15
190    2.29541086e-05
191    8.58120416e-06
192    -1.5433825e-05
193    1.42752317e-14
194    0.000202128824
195    -5.65939682e-05
196    0.000208375693
197    -4.22520347e-14
198    -0.00150702557
199    0.00244528428
200    -6.22347545e-05
201    -4.50986434e-14
202    4.98690026e-06
203    -2.3114212e-16
204    -4.73448514e-06
205    -1.12450255e-16
206    3.31557324e-05
207    -1.39228851e-09
208    2.88695875e-08
209    -1.39457373e-07
210    6.31315769e-07
211    -7.62296176e-06
212    -3.10436664e-05
213    2.11339813e-05
214    9.00599186e-06
215    -1.51025662e-05
216    9.24168555e-16
217    4.75766769e-05
218    -2.45705834e-05
219    5.33118923e-05
220    -5.64774532e-15
221    -2.33051762e-05
222    1.22845574e-06
223    -2.71833537e-05
224    1.03740266e-14
225    0.000168226824
226    -8.32975601e-05
227    -3.00839212e-05
228    -4.17678758e-14
229    -0.00190379251
230    0.000377250022
231    -0.000764991665
232    -1.65582621e-14
233    -2.13407018e-05
234    -2.33847966e-16
235    -4.17496304e-06
236    2.93408102e-16
237    -2.43637345e-05
238    3.72328128e-11
239    2.72256447e-10
240    1.52026643e-09
241    1.33996386e-09
242    -6.72915992e-08
243    -1.14025147e-06
244    2.95104578e-07
245    1.29834889e-06
246    -6.40870023e-08
247    1.35600786e-15
248    -5.15074519e-09
249    -1.38803451e-05
250    1.32876197e-06
251    2.33197613e-15
252    0.000242902722
253    -0.000148939094
254    8.29975896e-05
255    7.64900174e-15
256    0.00320715015
257    -0.000756686665
258    0.000436681201
259    -5.17100989e-14
260    -0.000137501179
261    -0.000118827518
262    -0.000283972645
263    -2.87760004e-14
264    6.0337731e-06
265    4.04288826e-16
266    1.38378425e-06
267    -9.95775198e-17
268    1.94031431e-07
269    6.38764059e-07
270    2.54742975e-05
271    5.72467376e-05
272    8.24293352e-05
273    -3.83016715e-06
274    2.57546725e-06
275    6.02000448e-16
[5D]