                  Welcome to Q-Chem
     A Quantum Leap Into The Future Of Chemistry


 Q-Chem 5.2 (devel), Q-Chem, Inc., Pleasanton, CA (2019)

 Yihan Shao,  Zhengting Gan,  E. Epifanovsky,  A. T. B. Gilbert,  M. Wormit,  
 J. Kussmann,  A. W. Lange,  A. Behn,  Jia Deng,  Xintian Feng,  D. Ghosh,  
 M. Goldey,  P. R. Horn,  L. D. Jacobson,  I. Kaliman,  T. Kus,  A. Landau,  
 Jie Liu,  E. I. Proynov,  R. M. Richard,  R. P. Steele,  E. J. Sundstrom,  
 H. L. Woodcock III,  P. M. Zimmerman,  D. Zuev,  B. Albrecht,  E. Alguire,  
 S. A. Baeppler,  D. Barton,  Z. Benda,  Y. A. Bernard,  E. J. Berquist,  
 K. B. Bravaya,  H. Burton,  D. Casanova,  Chun-Min Chang,  Yunqing Chen,  
 A. Chien,  K. D. Closser,  M. P. Coons,  S. Coriani,  S. Dasgupta,  
 A. L. Dempwolff,  M. Diedenhofen,  Hainam Do,  R. G. Edgar,  Po-Tung Fang,  
 S. Faraji,  S. Fatehi,  Qingguo Feng,  K. D. Fenk,  J. Fosso-Tande,  
 J. Gayvert,  Qinghui Ge,  A. Ghysels,  G. Gidofalvi,  J. Gomes,  
 J. Gonthier,  A. Gunina,  D. Hait,  M. W. D. Hanson-Heine,  
 P. H. P. Harbach,  A. W. Hauser,  M. F. Herbst,  J. E. Herr,  
 E. G. Hohenstein,  Z. C. Holden,  Kerwin Hui,  B. C. Huynh,  T.-C. Jagau,  
 Hyunjun Ji,  B. Kaduk,  K. Khistyaev,  Jaehoon Kim,  P. Klunzinger,  K. Koh,  
 D. Kosenkov,  L. Koulias,  T. Kowalczyk,  C. M. Krauter,  A. Kunitsa,  
 Ka Un Lao,  A. Laurent,  K. V. Lawler,  Joonho Lee,  D. Lefrancois,  
 S. Lehtola,  D. S. Levine,  Yi-Pei Li,  You-Sheng Lin,  Fenglai Liu,  
 E. Livshits,  A. Luenser,  P. Manohar,  E. Mansoor,  S. F. Manzer,  
 Shan-Ping Mao,  Yuezhi Mao,  N. Mardirossian,  A. V. Marenich,  
 T. Markovich,  L. A. Martinez-Martinez,  S. A. Maurer,  N. J. Mayhall,  
 S. C. McKenzie,  J.-M. Mewes,  P. Morgante,  A. F. Morrison,  
 J. W. Mullinax,  K. Nanda,  T. S. Nguyen-Beck,  R. Olivares-Amaya,  
 J. A. Parkhill,  Zheng Pei,  T. M. Perrine,  F. Plasser,  P. Pokhilko,  
 S. Prager,  A. Prociuk,  E. Ramos,  D. R. Rehn,  F. Rob,  M. Scheurer,  
 M. Schneider,  N. Sergueev,  S. M. Sharada,  S. Sharma,  D. W. Small,  
 T. Stauch,  T. Stein,  Yu-Chuan Su,  A. J. W. Thom,  A. Tkatchenko,  
 T. Tsuchimochi,  N. M. Tubman,  L. Vogt,  M. L. Vidal,  O. Vydrov,  
 M. A. Watson,  J. Wenzel,  M. de Wergifosse,  T. A. Wesolowski,  A. White,  
 J. Witte,  A. Yamada,  Jun Yang,  K. Yao,  S. Yeganeh,  S. R. Yost,  
 Zhi-Qiang You,  A. Zech,  Igor Ying Zhang,  Xing Zhang,  Yan Zhao,  
 Ying Zhu,  B. R. Brooks,  G. K. L. Chan,  C. J. Cramer,  M. S. Gordon,  
 W. J. Hehre,  A. Klamt,  M. W. Schmidt,  C. D. Sherrill,  D. G. Truhlar,  
 A. Aspuru-Guzik,  R. Baer,  A. T. Bell,  N. A. Besley,  Jeng-Da Chai,  
 A. E. DePrince, III,  R. A. DiStasio Jr.,  A. Dreuw,  B. D. Dunietz,  
 T. R. Furlani,  Chao-Ping Hsu,  Yousung Jung,  Jing Kong,  D. S. Lambrecht,  
 WanZhen Liang,  C. Ochsenfeld,  V. A. Rassolov,  L. V. Slipchenko,  
 J. E. Subotnik,  T. Van Voorhis,  J. M. Herbert,  A. I. Krylov,  
 P. M. W. Gill,  M. Head-Gordon

 Contributors to earlier versions of Q-Chem not listed above: 
 R. D. Adamson,  B. Austin,  J. Baker,  G. J. O. Beran,  K. Brandhorst,  
 S. T. Brown,  E. F. C. Byrd,  A. K. Chakraborty,  C.-L. Cheng,  
 Siu Hung Chien,  D. M. Chipman,  D. L. Crittenden,  H. Dachsel,  
 R. J. Doerksen,  A. D. Dutoi,  L. Fusti-Molnar,  W. A. Goddard III,  
 A. Golubeva-Zadorozhnaya,  S. R. Gwaltney,  G. Hawkins,  A. Heyden,  
 S. Hirata,  G. Kedziora,  F. J. Keil,  C. Kelley,  Jihan Kim,  R. A. King,  
 R. Z. Khaliullin,  P. P. Korambath,  W. Kurlancheek,  A. M. Lee,  M. S. Lee,  
 S. V. Levchenko,  Ching Yeh Lin,  D. Liotard,  R. C. Lochan,  I. Lotan,  
 P. E. Maslen,  N. Nair,  D. P. O'Neill,  D. Neuhauser,  E. Neuscamman,  
 C. M. Oana,  R. Olson,  B. Peters,  R. Peverati,  P. A. Pieniazek,  
 Y. M. Rhee,  J. Ritchie,  M. A. Rohrdanz,  E. Rosta,  N. J. Russ,  
 H. F. Schaefer III,  N. E. Schultz,  N. Shenvi,  A. C. Simmonett,  A. Sodt,  
 D. Stuck,  K. S. Thanthiriwatte,  V. Vanovschi,  Tao Wang,  A. Warshel,  
 C. F. Williams,  Q. Wu,  X. Xu,  W. Zhang

 Please cite Q-Chem as follows:
 Y. Shao et al., Mol. Phys. 113, 184-215 (2015)
 DOI: 10.1080/00268976.2014.952696

 Q-Chem 5.2.0 for Mac (Intel) OS X

 Parts of Q-Chem use Armadillo 8.300.2 (Tropical Shenanigans).
 http://arma.sourceforge.net/

 Q-Chem begins on Wed May 29 06:27:08 2019  

Annas-MacBook-Pro-4.local
Host: 0

     Scratch files written to /scratch/qchem7725//
Processing $rem in /Users/annakrylov/.qchemrc:
	CC_MEMORY  8000
NAlpha2: 58
NElect   58
Mult     1

Checking the input file for inconsistencies... 	...done.

--------------------------------------------------------------
User input:
--------------------------------------------------------------
$comment
I think this is equilibrium geometry. I symmetrized it with IQmol
$end

$molecule
0 1
N          0.00000        0.95064        0.03617
N          0.00000       -1.01646       -1.17678
C          0.00000        0.37240       -1.21738
C          0.00000       -1.73906       -0.01025
C          0.00000       -1.14569        1.19934
C          0.00000        0.31332        1.28805
O          0.00000        0.96679        2.30939
O          0.00000        0.99654       -2.25445
H          0.00000        1.96592        0.05068
H          0.00000       -1.47161       -2.07989
H          0.00000       -2.82299       -0.12835
H          0.00000       -1.71696        2.12384
$end

$rem
JOBTYPE SP
BASIS 6-31G*
METHOD HF
$end

--------------------------------------------------------------
 ----------------------------------------------------------------
             Standard Nuclear Orientation (Angstroms)
    I     Atom           X                Y                Z
 ----------------------------------------------------------------
    1      N       0.0354846971    -0.9850555213    -0.0000000000
    2      N      -1.1754105895     0.9833099726    -0.0000000000
    3      C      -1.2174608195    -0.4055068756    -0.0000000000
    4      C      -0.0081266842     1.7046914842     0.0000000000
    5      C       1.2008430574     1.1100587500     0.0000000000
    6      C       1.2880295062    -0.3490430859     0.0000000000
    7      O       2.3086865939    -1.0035792161     0.0000000000
    8      O      -2.2551819831    -1.0285636235    -0.0000000000
    9      H       0.0489345305    -2.0003501192    -0.0000000000
   10      H      -2.0780448281     1.4394027548    -0.0000000000
   11      H      -0.1250947767     2.7887442137     0.0000000000
   12      H       2.1259390754     1.6803630727     0.0000000000
 ----------------------------------------------------------------
 Molecular Point Group                 Cs    NOp =  2
 Largest Abelian Subgroup              Cs    NOp =  2
 Nuclear Repulsion Energy =         356.75852787 hartrees
 There are       29 alpha and       29 beta electrons
 Requested basis set is 6-31G(d)
 There are 40 shells and 128 basis functions

 Total QAlloc Memory Limit   2000 MB
 Mega-Array Size       188 MB
 MEM_STATIC part       192 MB

                       Distance Matrix (Angstroms)
             N (  1)   N (  2)   C (  3)   C (  4)   C (  5)   C (  6)
   N (  2)  2.311002
   C (  3)  1.380489  1.389453
   C (  4)  2.690101  1.372204  2.432165
   C (  5)  2.397408  2.379632  2.853968  1.347292
   C (  6)  1.404771  2.800661  2.506126  2.428548  1.461704
   O (  7)  2.273277  4.010818  3.576508  3.564036  2.386374  1.212501
   O (  8)  2.291080  2.283318  1.210399  3.538353  4.064211  3.607783
   H (  9)  1.015384  3.225097  2.036488  3.705481  3.316856  2.064503
   H ( 10)  3.216365  1.011321  2.035754  2.086849  3.295387  3.811692
   H ( 11)  3.777215  2.088721  3.375871  1.090345  2.139181  3.441312
   H ( 12)  3.387397  3.374136  3.940708  2.134204  1.086761  2.195582
             O (  7)   O (  8)   H (  9)   H ( 10)   H ( 11)
   O (  8)  4.563937
   H (  9)  2.469824  2.500664
   H ( 10)  5.021113  2.474315  4.044248
   H ( 11)  4.506108  4.371397  4.792255  2.373760
   H ( 12)  2.690157  5.150971  4.226298  4.210884  2.509116

 A cutoff of  1.0D-08 yielded    717 shell pairs
 There are      7800 function pairs
 Smallest overlap matrix eigenvalue = 1.23E-03

 Scale SEOQF with 1.000000e-01/1.000000e-01/1.000000e+00

 Standard Electronic Orientation quadrupole field applied
 Nucleus-field energy     =     0.0000000099 hartrees
 Guess from superposition of atomic densities
 Warning:  Energy on first SCF cycle will be non-variational
 SAD guess density has 58.000000 electrons

 -----------------------------------------------------------------------
  General SCF calculation program by
  Eric Jon Sundstrom, Paul Horn, Yuezhi Mao, Dmitri Zuev, Alec White,
  David Stuck, Shaama M.S., Shane Yost, Joonho Lee, David Small,
  Daniel Levine, Susi Lehtola, Hugh Burton, Evgeny Epifanovsky
 -----------------------------------------------------------------------
 Hartree-Fock
 A restricted SCF calculation will be
 performed using DIIS
 SCF converges when DIIS error is below 1.0e-05
 ---------------------------------------
  Cycle       Energy         DIIS error
 ---------------------------------------
    1    -415.3533432750      7.97e-02  
    2    -412.2260691300      1.10e-02  
    3    -412.3407875155      8.99e-03  
    4    -412.4628642491      1.00e-03  
    5    -412.4665131724      3.65e-04  
    6    -412.4669918282      1.33e-04  
    7    -412.4671188661      6.50e-05  
    8    -412.4671431494      2.44e-05  
    9    -412.4671452482      7.91e-06  Convergence criterion met
 ---------------------------------------
 SCF time:   CPU 2.90s  wall 3.00s 
 SCF   energy in the final basis set =     -412.4671452482
 Total energy in the final basis set =     -412.4671452482

 --------------------------------------------------------------
             Orbital Energies (a.u.) and Symmetries
 --------------------------------------------------------------

 Alpha MOs, Restricted
 -- Occupied --                  
-20.551 -20.546 -15.647 -15.628 -11.420 -11.381 -11.341 -11.255
  1 A'    2 A'    3 A'    4 A'    5 A'    6 A'    7 A'    8 A'                 
 -1.434  -1.398  -1.308  -1.241  -1.083  -0.926  -0.895  -0.801
  9 A'   10 A'   11 A'   12 A'   13 A'   14 A'   15 A'   16 A'                 
 -0.759  -0.709  -0.671  -0.662  -0.646  -0.610  -0.596  -0.565
 17 A'   18 A'   19 A'    1 A"   20 A'   21 A'   22 A'    2 A"                 
 -0.520  -0.477  -0.441  -0.429  -0.362
  3 A"   23 A'   24 A'    4 A"    5 A"                                         
 -- Virtual --                   
  0.104   0.179   0.191   0.249   0.256   0.298   0.321   0.373
  6 A"    7 A"   25 A'   26 A'   27 A'   28 A'    8 A"   29 A'                 
  0.404   0.422   0.443   0.501   0.534   0.551   0.667   0.692
 30 A'   31 A'   32 A'   33 A'   34 A'   35 A'   36 A'    9 A"                 
  0.714   0.741   0.779   0.782   0.799   0.805   0.869   0.885
 37 A'   38 A'   39 A'   10 A"   40 A'   11 A"   41 A'   12 A"                 
  0.910   0.946   0.984   0.998   1.024   1.062   1.078   1.094
 42 A'   43 A'   13 A"   44 A'   45 A'   46 A'   47 A'   14 A"                 
  1.098   1.113   1.146   1.170   1.230   1.261   1.303   1.315
 48 A'   49 A'   50 A'   51 A'   52 A'   53 A'   15 A"   54 A'                 
  1.331   1.364   1.386   1.431   1.453   1.557   1.591   1.596
 16 A"   55 A'   56 A'   17 A"   57 A'   58 A'   59 A'   18 A"                 
  1.647   1.682   1.687   1.706   1.713   1.717   1.816   1.868
 19 A"   60 A'   20 A"   61 A'   21 A"   22 A"   62 A'   63 A'                 
  2.024   2.047   2.081   2.095   2.097   2.119   2.144   2.206
 64 A'   65 A'   23 A"   24 A"   66 A'   67 A'   68 A'   69 A'                 
  2.270   2.272   2.290   2.311   2.382   2.452   2.480   2.485
 70 A'   25 A"   26 A"   71 A'   72 A'   73 A'   27 A"   74 A'                 
  2.528   2.587   2.629   2.632   2.712   2.877   2.934   2.936
 75 A'   28 A"   29 A"   76 A'   77 A'   78 A'   30 A"   79 A'                 
  2.972   2.977   3.005   3.081   3.135   3.170   3.330   3.354
 80 A'   31 A"   32 A"   81 A'   82 A'   83 A'   84 A'   85 A'                 
  3.365   3.588   3.769   4.324   4.374   4.404   4.553   4.592
 86 A'   87 A'   88 A'   89 A'   90 A'   91 A'   92 A'   93 A'                 
  4.782   4.992   5.074
 94 A'   95 A'   96 A'                                                         

 Beta MOs, Restricted
 -- Occupied --                  
-20.551 -20.546 -15.647 -15.628 -11.420 -11.381 -11.341 -11.255
  1 A'    2 A'    3 A'    4 A'    5 A'    6 A'    7 A'    8 A'                 
 -1.434  -1.398  -1.308  -1.241  -1.083  -0.926  -0.895  -0.801
  9 A'   10 A'   11 A'   12 A'   13 A'   14 A'   15 A'   16 A'                 
 -0.759  -0.709  -0.671  -0.662  -0.646  -0.610  -0.596  -0.565
 17 A'   18 A'   19 A'    1 A"   20 A'   21 A'   22 A'    2 A"                 
 -0.520  -0.477  -0.441  -0.429  -0.362
  3 A"   23 A'   24 A'    4 A"    5 A"                                         
 -- Virtual --                   
  0.104   0.179   0.191   0.249   0.256   0.298   0.321   0.373
  6 A"    7 A"   25 A'   26 A'   27 A'   28 A'    8 A"   29 A'                 
  0.404   0.422   0.443   0.501   0.534   0.551   0.667   0.692
 30 A'   31 A'   32 A'   33 A'   34 A'   35 A'   36 A'    9 A"                 
  0.714   0.741   0.779   0.782   0.799   0.805   0.869   0.885
 37 A'   38 A'   39 A'   10 A"   40 A'   11 A"   41 A'   12 A"                 
  0.910   0.946   0.984   0.998   1.024   1.062   1.078   1.094
 42 A'   43 A'   13 A"   44 A'   45 A'   46 A'   47 A'   14 A"                 
  1.098   1.113   1.146   1.170   1.230   1.261   1.303   1.315
 48 A'   49 A'   50 A'   51 A'   52 A'   53 A'   15 A"   54 A'                 
  1.331   1.364   1.386   1.431   1.453   1.557   1.591   1.596
 16 A"   55 A'   56 A'   17 A"   57 A'   58 A'   59 A'   18 A"                 
  1.647   1.682   1.687   1.706   1.713   1.717   1.816   1.868
 19 A"   60 A'   20 A"   61 A'   21 A"   22 A"   62 A'   63 A'                 
  2.024   2.047   2.081   2.095   2.097   2.119   2.144   2.206
 64 A'   65 A'   23 A"   24 A"   66 A'   67 A'   68 A'   69 A'                 
  2.270   2.272   2.290   2.311   2.382   2.452   2.480   2.485
 70 A'   25 A"   26 A"   71 A'   72 A'   73 A'   27 A"   74 A'                 
  2.528   2.587   2.629   2.632   2.712   2.877   2.934   2.936
 75 A'   28 A"   29 A"   76 A'   77 A'   78 A'   30 A"   79 A'                 
  2.972   2.977   3.005   3.081   3.135   3.170   3.330   3.354
 80 A'   31 A"   32 A"   81 A'   82 A'   83 A'   84 A'   85 A'                 
  3.365   3.588   3.769   4.324   4.374   4.404   4.553   4.592
 86 A'   87 A'   88 A'   89 A'   90 A'   91 A'   92 A'   93 A'                 
  4.782   4.992   5.074
 94 A'   95 A'   96 A'                                                         
 --------------------------------------------------------------

          Ground-State Mulliken Net Atomic Charges

     Atom                 Charge (a.u.)
  ----------------------------------------
      1 N                    -0.929367
      2 N                    -0.866113
      3 C                     1.045142
      4 C                     0.175159
      5 C                    -0.409233
      6 C                     0.837676
      7 O                    -0.599256
      8 O                    -0.607801
      9 H                     0.429504
     10 H                     0.425933
     11 H                     0.251623
     12 H                     0.246732
  ----------------------------------------
  Sum of atomic charges =     0.000000

 -----------------------------------------------------------------
                    Cartesian Multipole Moments
 -----------------------------------------------------------------
    Charge (ESU x 10^10)
                 0.0000
    Dipole Moment (Debye)
         X      -1.3276      Y       4.6905      Z       0.0000
       Tot       4.8748
    Quadrupole Moments (Debye-Ang)
        XX     -58.6539     XY      -2.4887     YY     -37.4908
        XZ      -0.0000     YZ       0.0000     ZZ     -46.1290
    Octopole Moments (Debye-Ang^2)
       XXX     -11.0428    XXY      32.6801    XYY      -4.8879
       YYY       6.9701    XXZ       0.0000    XYZ       0.0000
       YYZ       0.0000    XZZ      -1.6174    YZZ      -4.5789
       ZZZ       0.0000
    Hexadecapole Moments (Debye-Ang^3)
      XXXX    -695.1947   XXXY     -13.1148   XXYY    -169.9473
      XYYY     -13.0312   YYYY    -296.7491   XXXZ      -0.0000
      XXYZ       0.0000   XYYZ      -0.0000   YYYZ      -0.0000
      XXZZ    -108.5511   XYZZ      -2.5834   YYZZ     -72.9081
      XZZZ      -0.0000   YZZZ       0.0000   ZZZZ     -41.4229
 -----------------------------------------------------------------
Archival summary:
1\1\Annas-MacBook-Pro-4.local\SP\HF\6-31G*\2244\WedMay2906:27:112019WedMay2906:27:112019\0\\#,HF,6-31G*,\\0,1\N\H,1,1.01538\C,1,1.38049,2,115.582\O,3,1.2104,1,124.196,2,0,0\N,3,1.38945,1,113.089,2,-180,0\H,5,1.01132,3,115.073,1,-180,0\C,5,1.3722,3,123.45,1,-0,0\H,7,1.09034,5,115.558,3,-180,0\C,7,1.34729,5,122.094,3,-0,0\H,9,1.08676,7,122.157,5,-180,0\C,1,1.40477,2,116.161,3,180,0\O,11,1.2125,1,120.408,2,-0,0\\HF=-412.467145\\@

 Total job time:  3.01s(wall), 3.00s(cpu) 
 Wed May 29 06:27:11 2019

        *************************************************************
        *                                                           *
        *  Thank you very much for using Q-Chem.  Have a nice day.  *
        *                                                           *
        *************************************************************


 
User input: 2 of 2 
 
                  Welcome to Q-Chem
     A Quantum Leap Into The Future Of Chemistry


 Q-Chem 5.2 (devel), Q-Chem, Inc., Pleasanton, CA (2019)

 Yihan Shao,  Zhengting Gan,  E. Epifanovsky,  A. T. B. Gilbert,  M. Wormit,  
 J. Kussmann,  A. W. Lange,  A. Behn,  Jia Deng,  Xintian Feng,  D. Ghosh,  
 M. Goldey,  P. R. Horn,  L. D. Jacobson,  I. Kaliman,  T. Kus,  A. Landau,  
 Jie Liu,  E. I. Proynov,  R. M. Richard,  R. P. Steele,  E. J. Sundstrom,  
 H. L. Woodcock III,  P. M. Zimmerman,  D. Zuev,  B. Albrecht,  E. Alguire,  
 S. A. Baeppler,  D. Barton,  Z. Benda,  Y. A. Bernard,  E. J. Berquist,  
 K. B. Bravaya,  H. Burton,  D. Casanova,  Chun-Min Chang,  Yunqing Chen,  
 A. Chien,  K. D. Closser,  M. P. Coons,  S. Coriani,  S. Dasgupta,  
 A. L. Dempwolff,  M. Diedenhofen,  Hainam Do,  R. G. Edgar,  Po-Tung Fang,  
 S. Faraji,  S. Fatehi,  Qingguo Feng,  K. D. Fenk,  J. Fosso-Tande,  
 J. Gayvert,  Qinghui Ge,  A. Ghysels,  G. Gidofalvi,  J. Gomes,  
 J. Gonthier,  A. Gunina,  D. Hait,  M. W. D. Hanson-Heine,  
 P. H. P. Harbach,  A. W. Hauser,  M. F. Herbst,  J. E. Herr,  
 E. G. Hohenstein,  Z. C. Holden,  Kerwin Hui,  B. C. Huynh,  T.-C. Jagau,  
 Hyunjun Ji,  B. Kaduk,  K. Khistyaev,  Jaehoon Kim,  P. Klunzinger,  K. Koh,  
 D. Kosenkov,  L. Koulias,  T. Kowalczyk,  C. M. Krauter,  A. Kunitsa,  
 Ka Un Lao,  A. Laurent,  K. V. Lawler,  Joonho Lee,  D. Lefrancois,  
 S. Lehtola,  D. S. Levine,  Yi-Pei Li,  You-Sheng Lin,  Fenglai Liu,  
 E. Livshits,  A. Luenser,  P. Manohar,  E. Mansoor,  S. F. Manzer,  
 Shan-Ping Mao,  Yuezhi Mao,  N. Mardirossian,  A. V. Marenich,  
 T. Markovich,  L. A. Martinez-Martinez,  S. A. Maurer,  N. J. Mayhall,  
 S. C. McKenzie,  J.-M. Mewes,  P. Morgante,  A. F. Morrison,  
 J. W. Mullinax,  K. Nanda,  T. S. Nguyen-Beck,  R. Olivares-Amaya,  
 J. A. Parkhill,  Zheng Pei,  T. M. Perrine,  F. Plasser,  P. Pokhilko,  
 S. Prager,  A. Prociuk,  E. Ramos,  D. R. Rehn,  F. Rob,  M. Scheurer,  
 M. Schneider,  N. Sergueev,  S. M. Sharada,  S. Sharma,  D. W. Small,  
 T. Stauch,  T. Stein,  Yu-Chuan Su,  A. J. W. Thom,  A. Tkatchenko,  
 T. Tsuchimochi,  N. M. Tubman,  L. Vogt,  M. L. Vidal,  O. Vydrov,  
 M. A. Watson,  J. Wenzel,  M. de Wergifosse,  T. A. Wesolowski,  A. White,  
 J. Witte,  A. Yamada,  Jun Yang,  K. Yao,  S. Yeganeh,  S. R. Yost,  
 Zhi-Qiang You,  A. Zech,  Igor Ying Zhang,  Xing Zhang,  Yan Zhao,  
 Ying Zhu,  B. R. Brooks,  G. K. L. Chan,  C. J. Cramer,  M. S. Gordon,  
 W. J. Hehre,  A. Klamt,  M. W. Schmidt,  C. D. Sherrill,  D. G. Truhlar,  
 A. Aspuru-Guzik,  R. Baer,  A. T. Bell,  N. A. Besley,  Jeng-Da Chai,  
 A. E. DePrince, III,  R. A. DiStasio Jr.,  A. Dreuw,  B. D. Dunietz,  
 T. R. Furlani,  Chao-Ping Hsu,  Yousung Jung,  Jing Kong,  D. S. Lambrecht,  
 WanZhen Liang,  C. Ochsenfeld,  V. A. Rassolov,  L. V. Slipchenko,  
 J. E. Subotnik,  T. Van Voorhis,  J. M. Herbert,  A. I. Krylov,  
 P. M. W. Gill,  M. Head-Gordon

 Contributors to earlier versions of Q-Chem not listed above: 
 R. D. Adamson,  B. Austin,  J. Baker,  G. J. O. Beran,  K. Brandhorst,  
 S. T. Brown,  E. F. C. Byrd,  A. K. Chakraborty,  C.-L. Cheng,  
 Siu Hung Chien,  D. M. Chipman,  D. L. Crittenden,  H. Dachsel,  
 R. J. Doerksen,  A. D. Dutoi,  L. Fusti-Molnar,  W. A. Goddard III,  
 A. Golubeva-Zadorozhnaya,  S. R. Gwaltney,  G. Hawkins,  A. Heyden,  
 S. Hirata,  G. Kedziora,  F. J. Keil,  C. Kelley,  Jihan Kim,  R. A. King,  
 R. Z. Khaliullin,  P. P. Korambath,  W. Kurlancheek,  A. M. Lee,  M. S. Lee,  
 S. V. Levchenko,  Ching Yeh Lin,  D. Liotard,  R. C. Lochan,  I. Lotan,  
 P. E. Maslen,  N. Nair,  D. P. O'Neill,  D. Neuhauser,  E. Neuscamman,  
 C. M. Oana,  R. Olson,  B. Peters,  R. Peverati,  P. A. Pieniazek,  
 Y. M. Rhee,  J. Ritchie,  M. A. Rohrdanz,  E. Rosta,  N. J. Russ,  
 H. F. Schaefer III,  N. E. Schultz,  N. Shenvi,  A. C. Simmonett,  A. Sodt,  
 D. Stuck,  K. S. Thanthiriwatte,  V. Vanovschi,  Tao Wang,  A. Warshel,  
 C. F. Williams,  Q. Wu,  X. Xu,  W. Zhang

 Please cite Q-Chem as follows:
 Y. Shao et al., Mol. Phys. 113, 184-215 (2015)
 DOI: 10.1080/00268976.2014.952696

 Q-Chem 5.2.0 for Mac (Intel) OS X

 Parts of Q-Chem use Armadillo 8.300.2 (Tropical Shenanigans).
 http://arma.sourceforge.net/

 Q-Chem begins on Wed May 29 06:27:11 2019  

Annas-MacBook-Pro-4.local
Host: 0

     Scratch files written to /scratch/qchem7725//
Processing $rem in /Users/annakrylov/.qchemrc:
	CC_MEMORY  8000
NAlpha2: 60
NElect   58
Mult     3
Core orbitals will be frozen

Checking the input file for inconsistencies... 	...done.

--------------------------------------------------------------
User input:
--------------------------------------------------------------

$molecule
0 3
N          0.00000        0.95064        0.03617
N          0.00000       -1.01646       -1.17678
C          0.00000        0.37240       -1.21738
C          0.00000       -1.73906       -0.01025
C          0.00000       -1.14569        1.19934
C          0.00000        0.31332        1.28805
O          0.00000        0.96679        2.30939
O          0.00000        0.99654       -2.25445
H          0.00000        1.96592        0.05068
H          0.00000       -1.47161       -2.07989
H          0.00000       -2.82299       -0.12835
H          0.00000       -1.71696        2.12384
$end

$rem
JOBTYPE SP
BASIS 6-31G*
SCF_GUESS read
METHOD EOM-CCSD
cvs_ip_states  [4,0]
cc_trans_prop  true
cc_do_dyson = true
!state_analysis true
!molden_format  true
!nto_pairs      3
!pop_mulliken   true
$end
--------------------------------------------------------------
 ----------------------------------------------------------------
             Standard Nuclear Orientation (Angstroms)
    I     Atom           X                Y                Z
 ----------------------------------------------------------------
    1      N       0.0354846971    -0.9850555213    -0.0000000000
    2      N      -1.1754105895     0.9833099726    -0.0000000000
    3      C      -1.2174608195    -0.4055068756    -0.0000000000
    4      C      -0.0081266842     1.7046914842     0.0000000000
    5      C       1.2008430574     1.1100587500     0.0000000000
    6      C       1.2880295062    -0.3490430859     0.0000000000
    7      O       2.3086865939    -1.0035792161     0.0000000000
    8      O      -2.2551819831    -1.0285636235    -0.0000000000
    9      H       0.0489345305    -2.0003501192    -0.0000000000
   10      H      -2.0780448281     1.4394027548    -0.0000000000
   11      H      -0.1250947767     2.7887442137     0.0000000000
   12      H       2.1259390754     1.6803630727     0.0000000000
 ----------------------------------------------------------------
 Molecular Point Group                 Cs    NOp =  2
 Largest Abelian Subgroup              Cs    NOp =  2
 Nuclear Repulsion Energy =         356.75852787 hartrees
 There are       30 alpha and       28 beta electrons
 Requested basis set is 6-31G(d)
 There are 40 shells and 128 basis functions
 WARNING: the default MEM_TOTAL is adjusted according to given MEM_STATIC!
 Total memory of 8192 MB is distributed as follows: 
   MEM_STATIC is set to 192 MB
   QALLOC/CCMAN JOB total memory use is  8000 MB
 Warning: actual memory use might exceed 8192 MB

 Total QAlloc Memory Limit   8192 MB
 Mega-Array Size       188 MB
 MEM_STATIC part       192 MB

                       Distance Matrix (Angstroms)
             N (  1)   N (  2)   C (  3)   C (  4)   C (  5)   C (  6)
   N (  2)  2.311002
   C (  3)  1.380489  1.389453
   C (  4)  2.690101  1.372204  2.432165
   C (  5)  2.397408  2.379632  2.853968  1.347292
   C (  6)  1.404771  2.800661  2.506126  2.428548  1.461704
   O (  7)  2.273277  4.010818  3.576508  3.564036  2.386374  1.212501
   O (  8)  2.291080  2.283318  1.210399  3.538353  4.064211  3.607783
   H (  9)  1.015384  3.225097  2.036488  3.705481  3.316856  2.064503
   H ( 10)  3.216365  1.011321  2.035754  2.086849  3.295387  3.811692
   H ( 11)  3.777215  2.088721  3.375871  1.090345  2.139181  3.441312
   H ( 12)  3.387397  3.374136  3.940708  2.134204  1.086761  2.195582
             O (  7)   O (  8)   H (  9)   H ( 10)   H ( 11)
   O (  8)  4.563937
   H (  9)  2.469824  2.500664
   H ( 10)  5.021113  2.474315  4.044248
   H ( 11)  4.506108  4.371397  4.792255  2.373760
   H ( 12)  2.690157  5.150971  4.226298  4.210884  2.509116

 A cutoff of  1.0D-14 yielded    773 shell pairs
 There are      8286 function pairs
 Smallest overlap matrix eigenvalue = 1.23E-03

 Scale SEOQF with 1.000000e-01/1.000000e-01/1.000000e+00

 Standard Electronic Orientation quadrupole field applied
 Nucleus-field energy     =     0.0000000099 hartrees
 Guess MOs from SCF MO coefficient file

 -----------------------------------------------------------------------
  General SCF calculation program by
  Eric Jon Sundstrom, Paul Horn, Yuezhi Mao, Dmitri Zuev, Alec White,
  David Stuck, Shaama M.S., Shane Yost, Joonho Lee, David Small,
  Daniel Levine, Susi Lehtola, Hugh Burton, Evgeny Epifanovsky
 -----------------------------------------------------------------------
 Hartree-Fock
 A unrestricted SCF calculation will be
 performed using DIIS
 SCF converges when DIIS error is below 1.0e-08
 ---------------------------------------
  Cycle       Energy         DIIS error
 ---------------------------------------
    1    -412.3004338653      1.44e-03  
    2    -412.3332846648      7.88e-04  
    3    -412.3421032765      3.75e-04  
    4    -412.3478962738      2.14e-04  
    5    -412.3499137223      1.43e-04  
    6    -412.3509972129      7.71e-05  
    7    -412.3513373151      4.37e-05  
    8    -412.3514267370      2.67e-05  
    9    -412.3514727372      1.86e-05  
   10    -412.3515006498      1.22e-05  
   11    -412.3515142139      9.25e-06  
   12    -412.3515224208      5.14e-06  
   13    -412.3515252328      2.59e-06  
   14    -412.3515257045      9.97e-07  
   15    -412.3515257606      4.59e-07  
   16    -412.3515257706      2.77e-07  
   17    -412.3515257745      1.82e-07  
   18    -412.3515257768      1.10e-07  
   19    -412.3515257777      4.71e-08  
   20    -412.3515257779      1.92e-08  
   21    -412.3515257779      7.89e-09  Convergence criterion met
 ---------------------------------------
 SCF time:   CPU 13.72s  wall 13.00s 
<S^2> =          2.082401334
 SCF   energy in the final basis set =     -412.3515257779
 Total energy in the final basis set =     -412.3515257779


 ------------------------------------------------------------------------------

   CCMAN2: suite of methods based on coupled cluster
           and equation of motion theories.

   Components:
   * libvmm-1.3-trunk
     by Evgeny Epifanovsky, Ilya Kaliman.
   * libtensor-2.5-trunk
     by Evgeny Epifanovsky, Michael Wormit, Dmitry Zuev, Sam Manzer, 
        Ilya Kaliman.
   * libcc-2.5-trunk
     by Evgeny Epifanovsky, Arik Landau, Tomasz Kus, Kirill Khistyaev, 
        Dmitry Zuev, Prashant Manohar, Xintian Feng, Anna Krylov, 
        Matthew Goldey, Alec White, Thomas Jagau, Kaushik Nanda, 
        Anastasia Gunina, Alexander Kunitsa, Joonho Lee.

   CCMAN original authors:
   Anna I. Krylov, C. David Sherrill, Steven R. Gwaltney,
   Edward F. C. Byrd (2000)
   Sergey V. Levchenko, Lyudmila V. Slipchenko, Tao Wang,
   Ana-Maria C. Cristian (2003)
   Piotr A. Pieniazek, C. Melania Oana, Evgeny Epifanovsky (2007)
   Prashant Manohar (2009)

 ------------------------------------------------------------------------------


 Allocating and initializing 8000MB of RAM...
 Calculation will run on 1 core.


 Alpha MOs, Unrestricted
 -- Occupied --                  
-20.579 -20.549 -15.637 -15.616 -11.412 -11.371 -11.291 -11.283
  1 A'    2 A'    3 A'    4 A'    5 A'    6 A'    7 A'    8 A'                 
 -1.439  -1.419  -1.308  -1.237  -1.122  -0.935  -0.893  -0.806
  9 A'   10 A'   11 A'   12 A'   13 A'   14 A'   15 A'   16 A'                 
 -0.760  -0.696  -0.684  -0.684  -0.652  -0.622  -0.608  -0.602
 17 A'   18 A'    1 A"   19 A'   20 A'   21 A'    2 A"   22 A'                 
 -0.572  -0.484  -0.469  -0.458  -0.438  -0.249
  3 A"   23 A'    4 A"   24 A'    5 A"    6 A"                                 
 -- Virtual --                   
  0.166   0.198   0.252   0.257   0.283   0.287   0.371   0.408
  7 A"   25 A'   26 A'   27 A'    8 A"   28 A'   29 A'   30 A'                 
  0.415   0.447   0.505   0.533   0.543   0.665   0.668   0.709
 31 A'   32 A'   33 A'   34 A'   35 A'   36 A'    9 A"   37 A'                 
  0.731   0.767   0.778   0.780   0.802   0.852   0.867   0.909
 38 A'   10 A"   11 A"   39 A'   40 A'   12 A"   41 A'   42 A'                 
  0.940   0.983   0.989   1.023   1.070   1.083   1.094   1.100
 43 A'   13 A"   44 A'   45 A'   46 A'   47 A'   14 A"   48 A'                 
  1.107   1.140   1.173   1.230   1.246   1.266   1.316   1.319
 49 A'   50 A'   51 A'   52 A'   53 A'   15 A"   54 A'   16 A"                 
  1.356   1.378   1.417   1.459   1.553   1.588   1.589   1.641
 55 A'   56 A'   17 A"   57 A'   58 A'   18 A"   59 A'   19 A"                 
  1.664   1.678   1.684   1.711   1.716   1.819   1.866   2.021
 20 A"   60 A'   21 A"   61 A'   22 A"   62 A'   63 A'   64 A'                 
  2.040   2.056   2.086   2.088   2.110   2.143   2.193   2.249
 65 A'   23 A"   66 A'   24 A"   67 A'   68 A'   69 A'   25 A"                 
  2.264   2.290   2.302   2.378   2.447   2.461   2.484   2.534
 70 A'   26 A"   71 A'   72 A'   73 A'   27 A"   74 A'   75 A'                 
  2.577   2.618   2.625   2.716   2.868   2.923   2.934   2.973
 28 A"   29 A"   76 A'   77 A'   78 A'   30 A"   79 A'   31 A"                 
  2.974   3.002   3.085   3.136   3.174   3.326   3.346   3.361
 80 A'   32 A"   81 A'   82 A'   83 A'   84 A'   85 A'   86 A'                 
  3.590   3.774   4.334   4.367   4.410   4.543   4.587   4.788
 87 A'   88 A'   89 A'   90 A'   91 A'   92 A'   93 A'   94 A'                 
  4.994   5.067
 95 A'   96 A'                                                                 

 Beta MOs, Unrestricted
 -- Occupied --                  
-20.563 -20.547 -15.631 -15.616 -11.413 -11.378 -11.272 -11.261
  1 A'    2 A'    3 A'    4 A'    5 A'    6 A'    7 A'    8 A'                 
 -1.426  -1.396  -1.286  -1.225  -1.044  -0.898  -0.886  -0.788
  9 A'   10 A'   11 A'   12 A'   13 A'   14 A'   15 A'   16 A'                 
 -0.750  -0.684  -0.669  -0.643  -0.640  -0.608  -0.592  -0.541
 17 A'   18 A'   19 A'   20 A'    1 A"   21 A'   22 A'    2 A"                 
 -0.473  -0.455  -0.446  -0.398
 23 A'    3 A"   24 A'    4 A"                                                 
 -- Virtual --                   
  0.002   0.189   0.203   0.207   0.254   0.267   0.308   0.364
  5 A"    6 A"   25 A'    7 A"   26 A'   27 A'   28 A'    8 A"                 
  0.383   0.407   0.422   0.455   0.505   0.541   0.560   0.680
 29 A'   30 A'   31 A'   32 A'   33 A'   34 A'   35 A'   36 A'                 
  0.711   0.734   0.756   0.791   0.804   0.808   0.836   0.881
  9 A"   37 A'   38 A'   39 A'   10 A"   40 A'   11 A"   41 A'                 
  0.911   0.926   0.950   0.998   1.004   1.031   1.080   1.095
 42 A'   12 A"   43 A'   44 A'   13 A"   45 A'   46 A'   47 A'                 
  1.109   1.110   1.117   1.150   1.178   1.237   1.263   1.316
 48 A'   14 A"   49 A'   50 A'   51 A'   52 A'   53 A'   15 A"                 
  1.321   1.346   1.365   1.384   1.452   1.465   1.558   1.599
 54 A'   16 A"   55 A'   56 A'   17 A"   57 A'   58 A'   59 A'                 
  1.610   1.657   1.685   1.708   1.715   1.740   1.754   1.828
 18 A"   19 A"   60 A'   20 A"   61 A'   21 A"   22 A"   62 A'                 
  1.878   2.024   2.048   2.086   2.097   2.097   2.121   2.149
 63 A'   64 A'   65 A'   23 A"   66 A'   24 A"   67 A'   68 A'                 
  2.225   2.274   2.279   2.301   2.323   2.393   2.460   2.509
 69 A'   70 A'   25 A"   26 A"   71 A'   72 A'   73 A'   74 A'                 
  2.511   2.536   2.599   2.632   2.654   2.720   2.888   2.935
 27 A"   75 A'   28 A"   76 A'   29 A"   77 A'   78 A'   30 A"                 
  2.963   2.975   2.996   3.009   3.094   3.143   3.181   3.332
 79 A'   80 A'   31 A"   32 A"   81 A'   82 A'   83 A'   84 A'                 
  3.350   3.363   3.592   3.778   4.341   4.375   4.415   4.562
 85 A'   86 A'   87 A'   88 A'   89 A'   90 A'   91 A'   92 A'                 
  4.592   4.809   4.998   5.070
 93 A'   94 A'   95 A'   96 A'                                                 

 Occupation and symmetry of molecular orbitals

 Point group: Cs (2 irreducible representations).

                           A'   A"    All 
 ------------------------------------------
 All molecular orbitals:
  - Alpha                  96   32    128 
  - Beta                   96   32    128 
 ------------------------------------------
 Alpha orbitals:
  - Frozen occupied        8    0     8   
  - Active occupied        16   6     22  
  - Active virtual         72   26    98  
  - Frozen virtual         0    0     0   
 ------------------------------------------
 Beta orbitals:
  - Frozen occupied        8    0     8   
  - Active occupied        16   4     20  
  - Active virtual         72   28    100 
  - Frozen virtual         0    0     0   
 ------------------------------------------

 Import integrals:   CPU 0.00 s  wall 0.00 s

 Import integrals:   CPU 16.04 s  wall 12.30 s

 MP2 amplitudes:   CPU 0.19 s  wall 0.19 s

Running a double precision version
           CCSD T amplitudes will be solved using DIIS.

           Start     Size      MaxIter   EConv     TConv     
           3         7         100       1.00e-06  1.00e-04  
 ------------------------------------------------------------------------------
           Energy (a.u.)   Ediff      Tdiff       Comment
 ------------------------------------------------------------------------------
          -413.47097592                           
     1    -413.46997115   1.00e-03   9.50e-01     
     2    -413.50560006   3.56e-02   1.21e-01     
     3    -413.50596403   3.64e-04   4.70e-02     
     4    -413.51053199   4.57e-03   1.79e-02     Switched to DIIS steps.
     5    -413.51348542   2.95e-03   1.62e-02     
     6    -413.51407125   5.86e-04   5.84e-03     
     7    -413.51433195   2.61e-04   4.55e-03     
     8    -413.51439423   6.23e-05   1.42e-03     
     9    -413.51442301   2.88e-05   9.10e-04     
    10    -413.51442849   5.48e-06   3.40e-04     
    11    -413.51442752   9.75e-07   2.30e-04     
    12    -413.51443016   2.64e-06   1.46e-04     
    13    -413.51442956   5.94e-07   1.13e-04     
    14    -413.51443033   7.67e-07   7.51e-05     
 ------------------------------------------------------------------------------
          -413.51443033                           CCSD T converged.

End of double precision
 SCF energy                 = -412.35152578
 MP2 energy                 = -413.47097592
 CCSD correlation energy    =   -1.16290455
 CCSD total energy          = -413.51443033

 CCSD  T1^2 = 0.0522  T2^2 = 0.3868  Leading amplitudes:

 Amplitude    Orbitals with energies
  0.1302       3 (A") B                  ->    5 (A") B                   
              -0.4548                          0.0018                     
  0.0832       2 (A") A                  ->    7 (A") A                   
              -0.6079                          0.1656                     
  0.0573       6 (A") A                  ->    8 (A") A                   
              -0.2488                          0.2833                     
  0.0502       3 (A") B                  ->    6 (A") B                   
              -0.4548                          0.1894                     

 Amplitude    Orbitals with energies
  0.0390       6 (A") A      4 (A") B    ->    7 (A") A      5 (A") B     
              -0.2488       -0.3980            0.1656        0.0018       
 -0.0390       6 (A") A      4 (A") B    ->    5 (A") B      7 (A") A     
              -0.2488       -0.3980            0.0018        0.1656       
 -0.0390       4 (A") B      6 (A") A    ->    7 (A") A      5 (A") B     
              -0.3980       -0.2488            0.1656        0.0018       
  0.0390       4 (A") B      6 (A") A    ->    5 (A") B      7 (A") A     
              -0.3980       -0.2488            0.0018        0.1656       

 Computing CCSD intermediates for later calculations in double precision
 Finished.

Running a double precision version
           CCSD Lambda amplitudes will be solved using DIIS.
           Start     Size      MaxIter   EConv     LConv     
           3         7         100       1.00e-06  1.00e-04  
 ------------------------------------------------------------------------------
            Enorm      Ldiff       Comment
 ------------------------------------------------------------------------------
     1     7.42e-02   3.95e-02     
     2     2.61e-02   8.91e-03     
     3     1.16e-02   7.10e-04     
     4     5.69e-03   1.67e-03     Switched to DIIS steps.
     5     2.52e-03   1.21e-03     
     6     1.63e-03   4.55e-04     
     7     9.27e-04   2.95e-04     
     8     5.28e-04   1.73e-04     
     9     2.92e-04   7.40e-05     
    10     1.88e-04   2.30e-05     
    11     1.19e-04   1.30e-05     
    12     6.49e-05   3.37e-06     
    13     4.09e-05   1.48e-06     
    14     2.35e-05   1.53e-06     
    15     1.40e-05   4.25e-07     
    16     8.62e-06   7.75e-08     
    17     5.35e-06   3.52e-09     
    18     3.43e-06   1.16e-07     
    19     2.05e-06   8.39e-08     
    20     1.35e-06   3.15e-08     
    21     9.43e-07   2.61e-08     
 ------------------------------------------------------------------------------
                                   CCSD Lambda converged.

 CCSD calculation:   CPU 244.78 s  wall 126.08 s

        Solving for CVS-EOMIP-CCSD A' transitions.

Running a double precision version
      CVS-EOMIP-CCSD/MP2 right amplitudes will be solved using Davidson.
        Amplitudes will be solved using standard  algorithm.
     Hard-coded thresholds: 
     LinDepThresh=1.00e-15  NormThresh=1.00e-06  ReorthogonThresh=1.00e-02

      Roots     MaxVec    MaxIter   Precond   Conv      Shift    
      4         120       60        1         1.00e-05  0.00e+00  
 ------------------------------------------------------------------------------
      Iter ConvRoots NVecs ResNorm Current eigenvalues (eV)
 ------------------------------------------------------------------------------
      0    0      4     5.72e-01   306.4604   306.7034   308.6550   309.7722   
      1    0      8     4.61e-01   302.1491   302.4292   304.2254   305.3296   
      2    0      12    8.89e-03   294.4762   294.7348   296.4464   297.7541   
      3    0      16    1.11e-03   294.2405   294.5330   296.2613   297.5942   
      4    0      20    2.45e-04   294.2056   294.4966   296.2356   297.5769   
      5    0      24    6.74e-05   294.1970   294.4881   296.2288   297.5733   
      6    3      28    1.71e-05   294.1974*  294.4861   296.2289*  297.5739*  
      7    3      29    1.33e-05   294.1974*  294.4836   296.2289*  297.5739*  
      8    4      30    6.27e-06   294.1974*  294.4818*  296.2289*  297.5739*  

     Davidson procedure converged

 EOMIP transition 1/A'
 Total energy = -402.70287562 a.u.  Excitation energy = 294.1974 eV.
 R1^2 = 0.8863  R2_CCVV^2 = 0.0013  R2_COVV^2 = 0.1130  Res^2 = 9.60e-06
 Conv-d = yes

 Amplitude    Transitions between orbitals
 -0.9414       8 (A') A                  ->    infty        
  0.0120       7 (A') A                  ->    infty        
 -0.0003       6 (A') A                  ->    infty        

              Summary of significant orbitals:

               Number  Type             Irrep      Energy
               6       Occ  Alpha       6 (A')    -11.3708
               7       Occ  Alpha       7 (A')    -11.2908
               8       Occ  Alpha       8 (A')    -11.2828


 EOMIP transition 2/A'
 Total energy = -402.69242412 a.u.  Excitation energy = 294.4818 eV.
 R1^2 = 0.8795  R2_CCVV^2 = 0.0013  R2_COVV^2 = 0.1199  Res^2 = 5.33e-06
 Conv-d = yes

 Amplitude    Transitions between orbitals
 -0.9378       7 (A') A                  ->    infty        
 -0.0108       8 (A') A                  ->    infty        
 -0.0025       6 (A') A                  ->    infty        

              Summary of significant orbitals:

               Number  Type             Irrep      Energy
               6       Occ  Alpha       6 (A')    -11.3708
               7       Occ  Alpha       7 (A')    -11.2908
               8       Occ  Alpha       8 (A')    -11.2828


 EOMIP transition 3/A'
 Total energy = -402.62821794 a.u.  Excitation energy = 296.2289 eV.
 R1^2 = 0.8878  R2_CCVV^2 = 0.0013  R2_COVV^2 = 0.1116  Res^2 = 4.87e-06
 Conv-d = yes

 Amplitude    Transitions between orbitals
 -0.9422       6 (A') A                  ->    infty        
  0.0024       7 (A') A                  ->    infty        
  0.0004       8 (A') A                  ->    infty        

              Summary of significant orbitals:

               Number  Type             Irrep      Energy
               6       Occ  Alpha       6 (A')    -11.3708
               7       Occ  Alpha       7 (A')    -11.2908
               8       Occ  Alpha       8 (A')    -11.2828


 EOMIP transition 4/A'
 Total energy = -402.57879009 a.u.  Excitation energy = 297.5739 eV.
 R1^2 = 0.8957  R2_CCVV^2 = 0.0013  R2_COVV^2 = 0.1037  Res^2 = 5.28e-06
 Conv-d = yes

 Amplitude    Transitions between orbitals
 -0.9464       5 (A') A                  ->    infty        

              Summary of significant orbitals:

               Number  Type             Irrep      Energy
               5       Occ  Alpha       5 (A')    -11.4117


Running a double precision version
      CVS-EOMIP-CCSD/MP2 left amplitudes will be solved using Davidson.
        Amplitudes will be solved using MOM  algorithm.
     Hard-coded thresholds: 
     LinDepThresh=1.00e-15  NormThresh=1.00e-06  ReorthogonThresh=1.00e-02

      Roots     MaxVec    MaxIter   Precond   Conv      Shift    
      4         120       60        1         1.00e-05  0.00e+00  
 ------------------------------------------------------------------------------
      Iter ConvRoots NVecs ResNorm Current eigenvalues (eV)
 ------------------------------------------------------------------------------
      0    0      4     1.15e-02   294.8824   295.1488   296.9477   298.2565   
      1    0      8     2.21e-03   294.1905   294.4599   296.2385   297.5846   
      2    0      12    1.53e-04   294.1974   294.4693   296.2340   297.5787   
      3    1      16    2.26e-05   294.1969   294.4777   296.2282   297.5726*  
      4    3      19    5.87e-06   294.1963*  294.4797   296.2288*  297.5726*  
      5    4      20    3.11e-06   294.1963*  294.4816*  296.2288*  297.5726*  

     Davidson procedure converged

 CVS-EOMIP-CCSD calculation:   CPU 7.19 s  wall 6.51 s


 Reference -- EOM-IP-CCSD state  1/A'   transition
 Energy difference = 294.1974 eV.

 Left Dyson orbital norm is 0.926502

Left alpha Dyson orbital in the MO basis (canonical Q-Chem's ordering):
0     2.5571e-07
1     2.3749e-07
2     -2.3185e-05
3     1.4216e-07
4     -7.8886e-05
5     -3.8284e-04
6     1.1856e-02
7     -9.9993e-01
8     -3.0965e-16
9     5.7376e-16
10    -2.9837e-16
11    4.6838e-17
12    -6.6266e-16
13    -6.4185e-17
14    -5.9805e-16
15    1.1276e-17
16    1.9169e-16
17    9.3610e-16
18    -2.4431e-16
19    -3.2526e-17
20    -1.2145e-15
21    -1.1056e-15
22    5.9013e-17
23    3.3437e-16
24    1.3920e-16
25    -4.0354e-16
26    5.7795e-16
27    -6.7221e-17
28    4.9648e-17
29    8.8458e-17
30    -6.1005e-16
31    -2.3636e-16
32    -7.3780e-17
33    2.6455e-17
34    2.4238e-16
35    2.1771e-16
36    -2.8406e-17
37    -1.0963e-15
38    -1.5845e-15
39    2.7192e-16
40    -6.0444e-16
41    -1.3101e-15
42    9.4109e-16
43    4.6404e-17
44    -6.7038e-16
45    -6.7047e-16
46    5.4427e-17
47    7.8668e-16
48    7.7859e-17
49    -8.5408e-16
50    3.9378e-16
51    2.0414e-16
52    -8.1650e-16
53    -7.5404e-16
54    6.0748e-16
55    9.1685e-16
56    -7.3292e-17
57    -3.4738e-16
58    -7.4376e-17
59    1.1722e-15
60    1.2992e-15
61    -3.5562e-16
62    1.2519e-15
63    -8.3137e-16
64    1.5092e-16
65    5.5392e-16
66    9.1290e-16
67    3.7049e-16
68    -5.2324e-16
69    -1.5910e-15
70    1.7041e-15
71    -3.9454e-16
72    -2.6377e-16
73    3.6787e-16
74    1.4611e-15
75    -5.9735e-17
76    -4.2235e-16
77    -1.2760e-16
78    -9.0642e-17
79    2.1879e-15
80    -2.3279e-16
81    -9.9779e-16
82    -3.7774e-16
83    -1.5201e-15
84    7.9147e-18
85    -1.5592e-15
86    -6.4017e-16
87    5.0343e-16
88    -6.8744e-16
89    2.4399e-16
90    -7.9201e-17
91    5.0448e-16
92    1.1204e-15
93    1.1145e-15
94    -1.2185e-15
95    -8.0007e-16
96    3.2487e-16
97    -7.7629e-16
98    -3.0986e-16
99    -5.1943e-16
100   -4.5602e-16
101   -8.3673e-17
102   -3.1684e-16
103   -2.8514e-16
104   -8.1651e-16
105   1.2098e-15
106   -1.1310e-15
107   -6.9544e-16
108   -5.2492e-16
109   -1.1870e-15
110   -1.0795e-15
111   -1.7673e-15
112   4.7873e-16
113   -7.6916e-16
114   5.3209e-16
115   -3.7147e-16
116   -3.8115e-16
117   -8.2725e-17
118   1.9403e-16
119   -1.2984e-15
120   -1.0377e-15
121   -1.4130e-15
122   1.7933e-16
123   1.6859e-16
124   -8.5909e-17
125   -1.2251e-16
126   3.2848e-16
127   1.3805e-15

Decomposition over AOs for the left alpha Dyson orbital:
5.98012113e-05
2.42618945e-04
-1.33896298e-05
3.43252290e-06
1.69590541e-15
-3.11289424e-03
9.79873764e-04
-1.16453948e-03
-1.40276352e-15
9.73906124e-05
4.98412813e-05
1.08779741e-04
-4.18179768e-16
1.31506503e-16
1.05366870e-04
-2.64335093e-04
3.41851715e-04
1.46176468e-04
1.00514275e-04
-1.14453560e-16
-1.18417162e-04
-2.08702972e-03
-7.65060990e-04
-6.70767872e-16
-4.65771341e-04
-2.96108526e-04
-3.02276249e-04
-3.92916478e-16
5.76200612e-16
5.29550695e-05
1.36153455e-04
-3.93556586e-04
6.09794821e-06
-4.30925371e-05
1.74074331e-15
7.57736468e-04
4.01016800e-03
3.92658454e-04
-4.35579572e-16
1.34535522e-05
4.12175335e-05
7.86542018e-05
-1.12071055e-15
5.99974284e-16
-1.34832668e-04
9.92440845e-01
3.11034126e-02
-3.03990745e-04
-9.88463308e-04
1.50264283e-16
-9.18656661e-03
-2.20775915e-03
7.56503106e-04
1.78105754e-16
-2.80572650e-03
3.50694265e-05
-3.17917538e-03
2.21254697e-16
-2.05130966e-16
-2.50066479e-03
-7.21384299e-02
-2.29934558e-03
1.91204520e-04
-7.25603857e-05
3.80044225e-16
4.12950250e-03
-1.19325231e-03
1.52776112e-03
2.43488269e-16
-8.35665974e-05
6.34394247e-05
-1.11729222e-04
-2.17721567e-17
-1.40461802e-15
4.34774536e-05
8.90773902e-04
-2.08863905e-04
-2.53704128e-05
-3.07028373e-05
-1.38650076e-16
3.99916730e-04
-8.67264165e-04
9.93798623e-04
4.86360675e-16
6.05266286e-05
-8.19162803e-05
1.50252275e-04
4.00935163e-16
-1.51562288e-15
-4.62448018e-05
-4.71554726e-05
-1.98222519e-04
2.55054217e-05
-1.58560677e-05
-4.08457472e-16
1.24912286e-03
-1.91197729e-04
1.56690551e-04
-1.42764078e-16
-1.65132746e-04
5.33552533e-06
-1.13738275e-04
6.01162364e-16
-2.16394111e-16
-1.13909741e-04
-1.08234708e-04
-4.76365631e-04
-2.06971261e-05
-1.08285766e-05
-1.34283335e-15
3.31335725e-03
4.46369931e-04
5.88953073e-04
1.11263405e-15
-3.31174751e-04
2.87844022e-05
-2.75622785e-04
-8.70975219e-16
-7.04986125e-16
-2.63675717e-04
-5.28099246e-05
-9.63240462e-05
-2.26875229e-04
-3.36209498e-04
-1.14024935e-04
1.37235665e-03
-1.06717092e-04
-3.62540312e-04
   *****

 Right Dyson orbital norm is 0.957802

Right alpha Dyson orbital in the MO basis (canonical Q-Chem's ordering):
0     2.5644e-07
1     2.2397e-07
2     -1.9163e-05
3     5.9578e-08
4     -6.3802e-05
5     -3.1838e-04
6     1.2902e-02
7     -9.9992e-01
8     -3.0921e-16
9     5.7398e-16
10    -2.9230e-16
11    4.6404e-17
12    -6.6613e-16
13    -6.4185e-17
14    -5.9631e-16
15    1.0408e-17
16    1.9190e-16
17    9.3740e-16
18    -2.4424e-16
19    -3.2960e-17
20    -1.2160e-15
21    -1.1069e-15
22    5.8829e-17
23    3.3372e-16
24    1.3920e-16
25    -4.0224e-16
26    5.7833e-16
27    -6.7356e-17
28    4.9831e-17
29    8.8366e-17
30    -6.1050e-16
31    -2.3506e-16
32    -7.3509e-17
33    2.9490e-17
34    2.4259e-16
35    2.2291e-16
36    -2.7105e-17
37    -1.0974e-15
38    -1.5851e-15
39    2.7322e-16
40    -6.0509e-16
41    -1.3108e-15
42    9.4195e-16
43    4.7705e-17
44    -6.7082e-16
45    -6.7134e-16
46    5.4210e-17
47    7.8719e-16
48    7.8093e-17
49    -8.5321e-16
50    3.9335e-16
51    2.0452e-16
52    -8.1665e-16
53    -7.5382e-16
54    6.0780e-16
55    9.1737e-16
56    -7.2967e-17
57    -3.4738e-16
58    -7.6301e-17
59    1.1714e-15
60    1.2999e-15
61    -3.5562e-16
62    1.2519e-15
63    -8.3093e-16
64    1.5005e-16
65    5.5338e-16
66    9.1116e-16
67    3.7053e-16
68    -5.2302e-16
69    -1.5914e-15
70    1.7057e-15
71    -3.9476e-16
72    -2.6469e-16
73    3.6738e-16
74    1.4610e-15
75    -5.9663e-17
76    -4.2159e-16
77    -1.2751e-16
78    -9.0848e-17
79    2.1901e-15
80    -2.3309e-16
81    -9.9812e-16
82    -3.7809e-16
83    -1.5179e-15
84    6.7221e-18
85    -1.5603e-15
86    -6.3995e-16
87    5.0347e-16
88    -6.8738e-16
89    2.4425e-16
90    -7.9580e-17
91    5.0426e-16
92    1.1226e-15
93    1.1149e-15
94    -1.2187e-15
95    -8.0063e-16
96    3.2451e-16
97    -7.7651e-16
98    -3.0965e-16
99    -5.1958e-16
100   -4.5645e-16
101   -8.3009e-17
102   -3.1715e-16
103   -2.8531e-16
104   -8.1624e-16
105   1.2100e-15
106   -1.1319e-15
107   -6.9571e-16
108   -5.2595e-16
109   -1.1877e-15
110   -1.0790e-15
111   -1.7682e-15
112   4.7849e-16
113   -7.6892e-16
114   5.3251e-16
115   -3.7185e-16
116   -3.8186e-16
117   -8.1749e-17
118   1.9471e-16
119   -1.2990e-15
120   -1.0371e-15
121   -1.4142e-15
122   1.7998e-16
123   1.6794e-16
124   -8.8010e-17
125   -1.2176e-16
126   3.2904e-16
127   1.3809e-15

Decomposition over AOs for the right alpha Dyson orbital:
5.99737803e-05
2.42754469e-04
-1.34161281e-05
3.45713767e-06
1.69679036e-15
-3.11588548e-03
9.79930419e-04
-1.16572252e-03
-1.40398248e-15
9.76170778e-05
4.98819780e-05
1.09010792e-04
-4.18331602e-16
1.31375748e-16
1.05447639e-04
-2.60287627e-04
3.42098825e-04
1.46212118e-04
1.00521772e-04
-1.14561360e-16
-1.20942144e-04
-2.08821441e-03
-7.64950940e-04
-6.71251589e-16
-4.65589278e-04
-2.96130938e-04
-3.02172947e-04
-3.93149610e-16
5.76344063e-16
5.30165333e-05
1.21134486e-04
-3.94017830e-04
6.12512104e-06
-4.30929879e-05
1.74182948e-15
7.58714426e-04
4.01190337e-03
3.93367911e-04
-4.35666040e-16
1.34633566e-05
4.12218264e-05
7.86723957e-05
-1.12145583e-15
6.00369994e-16
-1.34829898e-04
9.92515188e-01
3.11055578e-02
-3.04202582e-04
-9.88454375e-04
1.50531355e-16
-9.18013202e-03
-2.20649155e-03
7.53850079e-04
1.78147569e-16
-2.80639071e-03
3.51232764e-05
-3.17968272e-03
2.21693885e-16
-2.05241082e-16
-2.50104045e-03
-7.11003758e-02
-2.26707922e-03
1.90487594e-04
-7.26390542e-05
3.80257938e-16
4.11295449e-03
-1.18970049e-03
1.53021068e-03
2.43394163e-16
-8.64722245e-05
6.32931403e-05
-1.14772290e-04
-2.20810249e-17
-1.40508205e-15
4.09966182e-05
8.20603861e-04
-2.10874939e-04
-2.53755191e-05
-3.07090633e-05
-1.39093497e-16
4.06906743e-04
-8.69409377e-04
9.97051115e-04
4.87228099e-16
6.02949712e-05
-8.19256256e-05
1.49837211e-04
4.00950996e-16
-1.51661388e-15
-4.62646506e-05
-4.71539561e-05
-1.98416947e-04
2.55086273e-05
-1.58626190e-05
-4.08834253e-16
1.25019400e-03
-1.91469904e-04
1.56576695e-04
-1.43101526e-16
-1.65140001e-04
5.33475007e-06
-1.13772994e-04
6.01441683e-16
-2.16367113e-16
-1.14052664e-04
-1.08267245e-04
-4.76602403e-04
-2.07180077e-05
-1.08421427e-05
-1.34329402e-15
3.31490983e-03
4.46644684e-04
5.89173256e-04
1.11277454e-15
-3.31315523e-04
2.87950369e-05
-2.75759693e-04
-8.71512619e-16
-7.05161069e-16
-2.63821784e-04
-5.28863970e-05
-9.63033750e-05
-2.26951551e-04
-3.36213020e-04
-1.14046078e-04
1.37287494e-03
-1.06907743e-04
-3.61701473e-04
   *****

     End transition


 Reference -- EOM-IP-CCSD state  2/A'   transition
 Energy difference = 294.4818 eV.

 Left Dyson orbital norm is 0.925131

Left alpha Dyson orbital in the MO basis (canonical Q-Chem's ordering):
0     9.6763e-07
1     -6.1678e-08
2     1.2075e-07
3     2.2428e-06
4     3.3993e-05
5     -2.8067e-03
6     -9.9992e-01
7     -1.2425e-02
8     1.8952e-16
9     -3.2569e-16
10    2.0959e-16
11    -5.9458e-16
12    1.3010e-16
13    7.5721e-16
14    -2.2074e-16
15    3.4694e-16
16    8.8037e-17
17    2.3419e-16
18    -5.2155e-17
19    -6.3317e-17
20    6.4450e-16
21    8.9674e-16
22    1.5776e-16
23    4.1286e-16
24    2.5728e-17
25    -5.7029e-16
26    -3.7282e-16
27    1.2663e-16
28    -1.7684e-16
29    9.1706e-17
30    4.2925e-16
31    -2.9577e-16
32    -2.1641e-16
33    -3.3480e-16
34    -1.9305e-16
35    -8.7950e-16
36    -6.4965e-16
37    8.7015e-16
38    1.0712e-16
39    -1.0584e-15
40    6.6895e-16
41    -9.9053e-16
42    -5.8113e-17
43    -7.5764e-16
44    4.2756e-16
45    -6.8869e-16
46    7.3146e-16
47    -5.1110e-16
48    -2.1939e-16
49    -8.2096e-16
50    -5.3278e-16
51    -3.7350e-16
52    1.7477e-16
53    -1.1048e-16
54    -3.8749e-16
55    -5.0231e-16
56    -6.0976e-16
57    -6.1149e-17
58    1.9099e-15
59    -4.5385e-16
60    -7.0460e-16
61    -2.0123e-16
62    -5.1608e-17
63    -8.8227e-18
64    2.8536e-16
65    6.3534e-16
66    -8.3657e-16
67    -4.9613e-17
68    -4.7575e-16
69    4.2880e-16
70    -1.0633e-15
71    8.8471e-17
72    9.0862e-16
73    3.3610e-16
74    -1.1872e-16
75    -5.8377e-17
76    -5.7048e-16
77    -8.8145e-17
78    1.8272e-16
79    -8.4871e-16
80    2.7586e-16
81    3.3843e-16
82    3.3460e-16
83    -3.2461e-16
84    7.7932e-16
85    1.0995e-15
86    -2.0166e-16
87    -2.6305e-17
88    -8.9989e-17
89    -2.4140e-16
90    1.4805e-16
91    1.6046e-16
92    -5.9729e-16
93    -4.4614e-16
94    3.6939e-16
95    5.5318e-16
96    3.0314e-16
97    -1.9277e-16
98    -4.8887e-16
99    1.4633e-16
100   5.9208e-16
101   -6.6543e-16
102   3.1156e-16
103   1.6373e-16
104   -2.2476e-16
105   -9.1181e-16
106   8.8720e-16
107   2.6382e-16
108   7.7092e-16
109   6.9308e-16
110   -2.9801e-16
111   8.7981e-16
112   1.5949e-16
113   -2.6389e-16
114   -3.9216e-16
115   3.3567e-16
116   7.5831e-16
117   -6.9665e-16
118   -6.9969e-16
119   5.2600e-16
120   -4.9440e-16
121   7.5591e-16
122   -8.1733e-16
123   4.6924e-16
124   2.0867e-15
125   -1.3595e-15
126   -5.3934e-16
127   -4.1704e-16

Decomposition over AOs for the left alpha Dyson orbital:
-7.28551483e-05
-1.46043135e-04
1.61576097e-05
-2.23465696e-05
-8.40007125e-16
2.77660694e-03
9.47471570e-05
1.12945398e-03
1.13108473e-15
-1.63441751e-04
-2.32990810e-05
-2.02271586e-04
1.40673672e-16
1.22276064e-16
-8.12134468e-05
-4.20733102e-05
-1.50846871e-04
-3.06802068e-05
-6.31269923e-06
1.11857963e-16
2.51767696e-03
1.13691601e-03
-1.94695331e-04
4.39005791e-16
-1.89485817e-04
1.89979674e-05
-1.03617175e-04
2.30569891e-16
-1.32935317e-16
-7.58714975e-05
-4.66892601e-05
9.69037037e-05
-2.48004570e-05
-6.02009442e-06
-1.06941508e-15
-8.52854800e-04
-1.69701697e-03
-8.51503087e-04
1.49257530e-16
4.76873112e-06
-5.58097531e-06
6.02804254e-07
7.31514994e-16
-3.89809912e-16
4.33577365e-05
-7.09849944e-02
-2.02827618e-03
2.06960625e-04
-1.55092691e-05
-2.69847430e-16
-6.14103650e-03
-1.26215437e-03
2.58192758e-03
-3.71844953e-17
6.29743017e-04
-4.96326961e-05
4.77704831e-04
-4.30488684e-16
1.03868798e-16
3.66305427e-04
-9.92574971e-01
-3.08490396e-02
6.78738766e-04
6.93977885e-05
-2.19989567e-16
1.55358574e-02
-3.35973242e-03
-2.17628239e-03
5.91552818e-17
2.79441387e-03
1.36803214e-04
2.94330999e-03
2.91433890e-16
4.61102078e-16
2.38113432e-03
8.51393826e-03
3.91565782e-04
2.75943941e-05
3.96951467e-05
4.11738037e-16
-6.32785970e-03
1.85833424e-03
-2.77726174e-03
-7.89195541e-16
2.48329786e-04
3.05289463e-05
4.54882788e-04
-1.60745336e-17
9.80550179e-16
1.53584361e-04
7.96592168e-06
1.22987279e-04
1.42000047e-05
-1.89986895e-06
3.57411961e-16
-6.67550356e-04
1.16667767e-04
1.58699022e-04
3.00328183e-16
-4.61450644e-06
-3.54150046e-06
2.60260958e-06
-2.72787244e-16
-3.56888563e-17
9.87425834e-05
5.39337992e-05
2.42326126e-04
1.54274139e-05
9.68999943e-06
4.61199392e-16
-1.61199446e-03
-2.87724316e-04
-2.01813443e-04
-1.57589436e-16
1.43415056e-04
-1.21252802e-05
1.46316878e-04
5.47616951e-16
1.99667288e-16
1.48727887e-04
7.50814842e-05
-2.31846969e-05
7.44670463e-05
1.04803384e-05
1.65058180e-05
-5.30630881e-04
1.83375632e-04
-8.27596697e-04
   *****

 Right Dyson orbital norm is 0.952440

Right alpha Dyson orbital in the MO basis (canonical Q-Chem's ordering):
0     9.8008e-07
1     -6.7548e-08
2     -5.2433e-08
3     1.9096e-06
4     2.0550e-05
5     -2.6417e-03
6     -9.9993e-01
7     -1.1364e-02
8     1.8908e-16
9     -3.2667e-16
10    2.0982e-16
11    -5.9501e-16
12    1.2750e-16
13    7.5894e-16
14    -2.2031e-16
15    3.4521e-16
16    8.8037e-17
17    2.3115e-16
18    -5.1864e-17
19    -6.3317e-17
20    6.4564e-16
21    8.9837e-16
22    1.5763e-16
23    4.1330e-16
24    2.5636e-17
25    -5.6986e-16
26    -3.7343e-16
27    1.2794e-16
28    -1.7690e-16
29    9.1621e-17
30    4.2991e-16
31    -2.9577e-16
32    -2.1727e-16
33    -3.3524e-16
34    -1.9330e-16
35    -8.7864e-16
36    -6.4705e-16
37    8.7109e-16
38    1.0885e-16
39    -1.0595e-15
40    6.7025e-16
41    -9.8793e-16
42    -5.9848e-17
43    -7.5894e-16
44    4.2831e-16
45    -6.8763e-16
46    7.3124e-16
47    -5.1198e-16
48    -2.1946e-16
49    -8.2009e-16
50    -5.3386e-16
51    -3.7374e-16
52    1.7586e-16
53    -1.0972e-16
54    -3.8890e-16
55    -5.0327e-16
56    -6.1062e-16
57    -6.1583e-17
58    1.9112e-15
59    -4.5526e-16
60    -7.0593e-16
61    -2.0144e-16
62    -5.3776e-17
63    -7.7249e-18
64    2.8525e-16
65    6.3578e-16
66    -8.3614e-16
67    -5.0043e-17
68    -4.7662e-16
69    4.3053e-16
70    -1.0649e-15
71    8.8037e-17
72    9.0901e-16
73    3.3567e-16
74    -1.2029e-16
75    -5.8307e-17
76    -5.6999e-16
77    -8.8022e-17
78    1.8278e-16
79    -8.5001e-16
80    2.7610e-16
81    3.3946e-16
82    3.3500e-16
83    -3.2201e-16
84    7.7911e-16
85    1.1011e-15
86    -2.0123e-16
87    -2.6816e-17
88    -8.9555e-17
89    -2.4166e-16
90    1.4799e-16
91    1.5981e-16
92    -5.9848e-16
93    -4.4735e-16
94    3.7112e-16
95    5.5406e-16
96    3.0293e-16
97    -1.9180e-16
98    -4.8876e-16
99    1.4690e-16
100   5.9246e-16
101   -6.6500e-16
102   3.1193e-16
103   1.6404e-16
104   -2.2410e-16
105   -9.1360e-16
106   8.8823e-16
107   2.6458e-16
108   7.7163e-16
109   6.9437e-16
110   -2.9676e-16
111   8.8175e-16
112   1.5878e-16
113   -2.6308e-16
114   -3.9237e-16
115   3.3616e-16
116   7.5879e-16
117   -6.9676e-16
118   -6.9988e-16
119   5.2738e-16
120   -4.9326e-16
121   7.5742e-16
122   -8.1771e-16
123   4.6946e-16
124   2.0871e-15
125   -1.3591e-15
126   -5.3982e-16
127   -4.1834e-16

Decomposition over AOs for the right alpha Dyson orbital:
-7.25498078e-05
-1.46328089e-04
1.61409857e-05
-2.23464817e-05
-8.41780175e-16
2.77969788e-03
9.42073028e-05
1.13065312e-03
1.13249702e-15
-1.63430772e-04
-2.32943984e-05
-2.02348267e-04
1.41104236e-16
1.22136041e-16
-8.13323119e-05
-4.19980726e-05
-1.51233150e-04
-3.08284375e-05
-6.41946927e-06
1.11993896e-16
2.51813035e-03
1.13913389e-03
-1.94087615e-04
4.39680606e-16
-1.89003468e-04
1.93015798e-05
-1.03307875e-04
2.31013203e-16
-1.33516505e-16
-7.59320257e-05
-3.33907711e-05
9.77558540e-05
-2.47732716e-05
-5.97878915e-06
-1.07133783e-15
-8.53573674e-04
-1.70157910e-03
-8.52552634e-04
1.49860492e-16
4.76469015e-06
-5.61034317e-06
5.19689534e-07
7.32752503e-16
-3.90473800e-16
4.35044010e-05
-7.20370965e-02
-2.06122582e-03
2.07300233e-04
-1.44707923e-05
-2.70044519e-16
-6.13108010e-03
-1.25987783e-03
2.58106279e-03
-3.73672009e-17
6.32710029e-04
-4.96622883e-05
4.81060784e-04
-4.30761112e-16
1.04079570e-16
3.68967028e-04
-9.92499852e-01
-3.08466179e-02
6.78522643e-04
6.94618554e-05
-2.20437285e-16
1.55303610e-02
-3.35821224e-03
-2.17735058e-03
5.88449359e-17
2.79454682e-03
1.36726014e-04
2.94352449e-03
2.91452061e-16
4.62602617e-16
2.38111960e-03
8.34905998e-03
3.87469199e-04
2.76921315e-05
3.98221679e-05
4.11852529e-16
-6.32720971e-03
1.85854806e-03
-2.77718818e-03
-7.89631340e-16
2.48336980e-04
3.06782632e-05
4.54881454e-04
-1.64895265e-17
9.82248310e-16
1.53997880e-04
8.02771800e-06
1.22992453e-04
1.42211110e-05
-1.90576096e-06
3.57826214e-16
-6.67667849e-04
1.16425499e-04
1.58686584e-04
3.00411644e-16
-4.48732430e-06
-3.56084493e-06
2.61794801e-06
-2.73431870e-16
-3.54873592e-17
9.87416529e-05
5.40710688e-05
2.42931637e-04
1.54543791e-05
9.70251508e-06
4.62668612e-16
-1.61618382e-03
-2.88381872e-04
-2.02477218e-04
-1.58793757e-16
1.43812082e-04
-1.21637920e-05
1.46676007e-04
5.48621816e-16
2.00479239e-16
1.49066381e-04
7.51386547e-05
-2.30917597e-05
7.47057402e-05
1.08501460e-05
1.66275225e-05
-5.32113005e-04
1.83488521e-04
-8.27326524e-04
   *****

     End transition


 Reference -- EOM-IP-CCSD state  3/A'   transition
 Energy difference = 296.2289 eV.

 Left Dyson orbital norm is 0.925703

Left alpha Dyson orbital in the MO basis (canonical Q-Chem's ordering):
0     1.4851e-05
1     1.1946e-07
2     1.1540e-07
3     2.4533e-05
4     8.2550e-05
5     -1.0000e+00
6     2.3771e-03
7     3.2528e-04
8     -7.8756e-16
9     5.4731e-16
10    -1.5222e-16
11    -4.6404e-16
12    -5.6107e-16
13    2.9057e-16
14    2.2898e-16
15    -5.8547e-16
16    -1.2230e-16
17    -1.5959e-16
18    -1.9632e-16
19    3.2309e-16
20    -4.2772e-16
21    -3.2288e-16
22    4.0527e-16
23    4.1460e-16
24    -3.5608e-16
25    -2.1532e-16
26    3.0773e-17
27    2.6791e-16
28    6.9029e-19
29    -5.6288e-17
30    -7.9054e-17
31    8.7690e-16
32    -1.3834e-16
33    7.1066e-17
34    -8.9001e-17
35    1.4100e-16
36    -7.3119e-16
37    -5.2215e-16
38    7.0690e-16
39    -9.3567e-16
40    -4.5428e-16
41    8.9338e-16
42    4.5742e-16
43    -3.0271e-16
44    -2.6941e-16
45    -2.2812e-16
46    -2.2725e-16
47    3.1239e-16
48    -5.9380e-17
49    -4.4095e-16
50    -2.9729e-16
51    1.1854e-16
52    8.2291e-16
53    -7.1297e-16
54    1.2041e-15
55    -4.5678e-18
56    5.7289e-16
57    8.2562e-17
58    -4.9635e-16
59    1.2609e-15
60    -2.5089e-16
61    1.5526e-16
62    5.3241e-16
63    -1.3054e-16
64    -4.3401e-16
65    -3.4066e-16
66    -3.6849e-16
67    2.4156e-16
68    3.5670e-16
69    -3.1634e-16
70    -2.1193e-16
71    -3.9053e-16
72    -5.9781e-16
73    -3.2114e-16
74    2.7192e-16
75    -7.5751e-17
76    -2.5988e-16
77    5.4174e-17
78    2.0488e-16
79    -8.9056e-16
80    7.8233e-17
81    6.4543e-16
82    -2.8869e-17
83    1.4138e-16
84    -4.5298e-16
85    1.2763e-15
86    2.5712e-16
87    -1.1962e-16
88    5.0296e-16
89    -2.8444e-17
90    4.1037e-16
91    7.5806e-17
92    -4.7472e-16
93    2.5833e-16
94    -1.5472e-16
95    -2.5199e-16
96    2.0562e-16
97    -3.5302e-16
98    -3.3079e-16
99    -1.3488e-16
100   -2.7940e-16
101   1.4137e-15
102   -2.4762e-16
103   -7.7643e-17
104   8.0903e-16
105   1.1423e-15
106   2.6308e-16
107   -1.2825e-16
108   -4.5818e-16
109   -2.1626e-16
110   -6.2577e-16
111   -5.0446e-16
112   3.8354e-16
113   -1.9543e-17
114   -3.6397e-16
115   -5.0665e-16
116   -5.0676e-16
117   3.4857e-16
118   -4.0099e-16
119   6.0864e-16
120   -3.6971e-17
121   1.0013e-16
122   6.4366e-16
123   -6.6977e-16
124   -1.4989e-15
125   3.2328e-16
126   3.2372e-16
127   -8.9598e-16

Decomposition over AOs for the left alpha Dyson orbital:
-2.71185319e-04
2.43337945e-04
1.80043218e-04
-2.17132093e-05
-1.14946933e-16
1.28365958e-03
-2.91116556e-03
1.53955364e-04
4.60400968e-16
-7.51387019e-04
-3.28122735e-04
-2.60869690e-04
7.08165863e-17
1.45508153e-17
4.35123575e-05
3.27125217e-05
1.44623855e-04
-4.28746478e-05
-4.67736596e-06
-1.06481300e-16
-2.00397211e-03
-6.33587273e-05
1.32085599e-03
2.52799105e-16
6.19496995e-05
5.68408514e-05
1.56452492e-05
-1.58530367e-16
-1.37414152e-16
4.17962509e-05
8.44611614e-05
-5.13464779e-04
-1.57472561e-04
5.15589323e-05
5.07728602e-16
-7.05381491e-04
1.59474246e-03
3.65127912e-03
-9.18589576e-16
-1.07719625e-04
-5.83429837e-05
-7.97199646e-05
-3.25219052e-16
1.80179494e-16
-2.14044958e-04
-2.56633581e-04
-1.96819466e-04
-1.01427500e-04
7.03275136e-05
2.36269735e-16
-9.92797804e-04
5.02779821e-04
6.46951154e-05
-3.59926071e-17
5.37429166e-05
-4.27433340e-05
9.56202870e-05
2.16246689e-16
3.14023284e-17
-8.08400068e-05
7.66534751e-03
1.04403007e-04
8.95423027e-05
8.29061049e-05
2.79297576e-16
6.26262254e-03
-1.29468447e-03
-3.20145624e-03
3.71520347e-16
-2.74999005e-04
5.80619490e-05
-5.84286903e-04
4.20427684e-17
-1.53743317e-16
-1.84282987e-04
9.95931523e-01
2.61824306e-02
-4.20202049e-04
-5.74235745e-04
1.98979416e-16
-6.37408722e-03
4.01921296e-03
-6.53610360e-03
-5.32648148e-16
-4.39537032e-04
-3.76569031e-04
-9.66767486e-04
-3.65823819e-17
-5.86894189e-16
-2.23347281e-03
-1.73538108e-04
1.19829798e-03
-2.92478866e-04
1.38093014e-04
8.94314398e-17
-7.00609189e-03
2.63643637e-03
-9.11977025e-04
4.07569329e-16
2.66887197e-04
8.07007104e-05
6.09140079e-04
7.35839415e-17
1.70343931e-16
7.15011407e-04
-1.19993164e-04
-5.27090910e-04
-4.03365292e-06
9.11746179e-06
-3.19435731e-16
3.64548574e-03
9.51548195e-04
1.40454632e-04
2.15973465e-16
-2.48132555e-04
4.41828187e-05
-3.73355496e-04
-5.37739373e-16
-4.48916515e-16
-3.09806864e-04
-1.48381465e-05
5.64876702e-05
4.96117755e-06
-9.08939382e-05
1.21260195e-05
2.80408669e-04
-4.63867234e-06
6.24249688e-04
   *****

 Right Dyson orbital norm is 0.954233

Right alpha Dyson orbital in the MO basis (canonical Q-Chem's ordering):
0     1.5371e-05
1     8.7909e-08
2     -1.1598e-08
3     2.0048e-05
4     7.7844e-05
5     -1.0000e+00
6     2.6002e-03
7     4.0479e-04
8     -7.8583e-16
9     5.4731e-16
10    -1.5309e-16
11    -4.6144e-16
12    -5.6194e-16
13    2.9100e-16
14    2.2638e-16
15    -5.8547e-16
16    -1.2251e-16
17    -1.6176e-16
18    -1.9629e-16
19    3.2353e-16
20    -4.2718e-16
21    -3.2374e-16
22    4.0523e-16
23    4.1503e-16
24    -3.5610e-16
25    -2.1489e-16
26    3.0815e-17
27    2.6791e-16
28    7.2757e-19
29    -5.6314e-17
30    -7.9104e-17
31    8.7679e-16
32    -1.3813e-16
33    7.1212e-17
34    -8.8979e-17
35    1.4138e-16
36    -7.3292e-16
37    -5.2042e-16
38    7.0777e-16
39    -9.3523e-16
40    -4.5471e-16
41    8.9317e-16
42    4.5797e-16
43    -3.0141e-16
44    -2.6945e-16
45    -2.2551e-16
46    -2.2833e-16
47    3.1244e-16
48    -5.9338e-17
49    -4.4095e-16
50    -2.9810e-16
51    1.1861e-16
52    8.2226e-16
53    -7.1427e-16
54    1.2043e-15
55    -4.5217e-18
56    5.7506e-16
57    8.2670e-17
58    -4.9722e-16
59    1.2614e-15
60    -2.5083e-16
61    1.5569e-16
62    5.3232e-16
63    -1.2794e-16
64    -4.3422e-16
65    -3.4055e-16
66    -3.6857e-16
67    2.4155e-16
68    3.5616e-16
69    -3.1632e-16
70    -2.1183e-16
71    -3.9085e-16
72    -5.9800e-16
73    -3.2092e-16
74    2.7105e-16
75    -7.5737e-17
76    -2.5923e-16
77    5.4202e-17
78    2.0485e-16
79    -8.9165e-16
80    7.8188e-17
81    6.4545e-16
82    -2.8915e-17
83    1.4127e-16
84    -4.5211e-16
85    1.2760e-15
86    2.5742e-16
87    -1.1965e-16
88    5.0285e-16
89    -2.8408e-17
90    4.0983e-16
91    7.5793e-17
92    -4.7479e-16
93    2.5835e-16
94    -1.5474e-16
95    -2.5205e-16
96    2.0551e-16
97    -3.5291e-16
98    -3.3014e-16
99    -1.3488e-16
100   -2.7962e-16
101   1.4138e-15
102   -2.4767e-16
103   -7.7658e-17
104   8.0903e-16
105   1.1426e-15
106   2.6286e-16
107   -1.2826e-16
108   -4.5862e-16
109   -2.1633e-16
110   -6.2580e-16
111   -5.0453e-16
112   3.8348e-16
113   -1.9489e-17
114   -3.6380e-16
115   -5.0686e-16
116   -5.0665e-16
117   3.4879e-16
118   -4.0094e-16
119   6.0870e-16
120   -3.6646e-17
121   9.9855e-17
122   6.4410e-16
123   -6.6993e-16
124   -1.4995e-15
125   3.2354e-16
126   3.2385e-16
127   -8.9601e-16

Decomposition over AOs for the right alpha Dyson orbital:
-2.66713563e-04
2.43468270e-04
1.80039727e-04
-2.17074179e-05
-1.14886224e-16
1.28325606e-03
-2.91125482e-03
1.53782098e-04
4.60257643e-16
-7.51376240e-04
-3.28120253e-04
-2.60849403e-04
7.08166400e-17
1.45148873e-17
4.35079867e-05
3.26159302e-05
1.44630001e-04
-4.28790419e-05
-4.68376603e-06
-1.06500831e-16
-2.00453075e-03
-6.34583376e-05
1.32096319e-03
2.52756896e-16
6.20278905e-05
5.68590989e-05
1.56890374e-05
-1.58552528e-16
-1.37426381e-16
4.18101756e-05
8.91466547e-05
-5.13333466e-04
-1.57463815e-04
5.15646626e-05
5.07839402e-16
-7.05252889e-04
1.59480745e-03
3.65142809e-03
-9.18599668e-16
-1.07724972e-04
-5.83428936e-05
-7.97310730e-05
-3.25299131e-16
1.80222915e-16
-2.14055653e-04
-3.16891765e-04
-1.98754667e-04
-1.01450369e-04
7.04074830e-05
2.36317845e-16
-9.90691492e-04
5.03239826e-04
6.40379757e-05
-3.59977044e-17
5.38177381e-05
-4.27347689e-05
9.57577295e-05
2.16325857e-16
3.13946834e-17
-8.07311457e-05
7.89322268e-03
1.11491517e-04
8.93759696e-05
8.28966451e-05
2.79320179e-16
6.25878889e-03
-1.29381967e-03
-3.20107686e-03
3.71491113e-16
-2.75618926e-04
5.80261544e-05
-5.84937816e-04
4.19791548e-17
-1.53744858e-16
-1.84819378e-04
9.95929619e-01
2.61823581e-02
-4.20206647e-04
-5.74242758e-04
1.98896403e-16
-6.37268402e-03
4.01883887e-03
-6.53554020e-03
-5.32511375e-16
-4.39597739e-04
-3.76569850e-04
-9.66881666e-04
-3.66086346e-17
-5.87000555e-16
-2.23350533e-03
-1.74054521e-04
1.19827115e-03
-2.92483216e-04
1.38094156e-04
8.93802140e-17
-7.00601770e-03
2.63642121e-03
-9.12021889e-04
4.07513080e-16
2.66900939e-04
8.07009334e-05
6.09148457e-04
7.36010429e-17
1.70368476e-16
7.14998301e-04
-1.19966692e-04
-5.27104079e-04
-4.03406263e-06
9.11692851e-06
-3.19441444e-16
3.64557129e-03
9.51568881e-04
1.40450749e-04
2.15932750e-16
-2.48138353e-04
4.41832535e-05
-3.73365513e-04
-5.37798574e-16
-4.48911255e-16
-3.09817902e-04
-1.48503347e-05
5.65006680e-05
4.96114428e-06
-9.08711065e-05
1.21320085e-05
2.80429263e-04
-4.67224402e-06
6.24457548e-04
   *****

     End transition


 Reference -- EOM-IP-CCSD state  4/A'   transition
 Energy difference = 297.5739 eV.

 Left Dyson orbital norm is 0.931276

Left alpha Dyson orbital in the MO basis (canonical Q-Chem's ordering):
0     5.3794e-08
1     1.7216e-05
2     -2.8167e-05
3     2.6143e-05
4     -1.0000e+00
5     -8.3215e-05
6     -3.8285e-05
7     5.7971e-05
8     -3.6429e-17
9     7.9103e-16
10    -3.5627e-16
11    4.1980e-16
12    2.0210e-16
13    -4.5916e-16
14    -5.3776e-17
15    -3.1398e-16
16    1.9169e-16
17    -1.4225e-16
18    -6.6051e-17
19    -4.8269e-16
20    -9.6711e-17
21    -1.6057e-16
22    -3.0271e-16
23    -1.6859e-16
24    -2.2041e-16
25    3.4781e-16
26    2.9846e-16
27    -3.1377e-16
28    4.9250e-17
29    -1.9754e-18
30    3.9623e-17
31    -2.7735e-16
32    -4.2447e-16
33    6.9237e-16
34    -2.3639e-16
35    1.9299e-16
36    8.6302e-17
37    -9.9833e-16
38    -4.4637e-16
39    4.1590e-16
40    8.7950e-16
41    6.2602e-16
42    1.7174e-16
43    -5.6128e-17
44    7.0605e-18
45    -4.2154e-16
46    -6.8646e-16
47    3.1961e-16
48    -6.6072e-17
49    5.0708e-16
50    -1.0853e-15
51    -1.2650e-16
52    -1.4881e-17
53    -2.5674e-16
54    4.0115e-16
55    5.0921e-16
56    -6.4488e-16
57    -6.0672e-16
58    -6.5919e-16
59    -1.3466e-16
60    2.2553e-16
61    7.1883e-16
62    6.7134e-16
63    1.3092e-16
64    -3.5616e-17
65    1.4550e-16
66    6.6668e-16
67    1.6579e-16
68    7.0067e-16
69    -8.2740e-16
70    1.0146e-15
71    5.9214e-16
72    7.2261e-16
73    -2.2622e-16
74    5.5099e-16
75    -4.1186e-16
76    1.2388e-15
77    -2.8246e-16
78    1.5697e-16
79    7.2587e-17
80    4.3178e-17
81    4.3547e-16
82    -1.9800e-16
83    1.0033e-15
84    -1.1297e-16
85    4.0408e-16
86    5.0830e-16
87    1.7266e-16
88    -2.6389e-16
89    -1.2296e-16
90    -2.1858e-16
91    -4.2779e-17
92    -8.0163e-16
93    8.2694e-16
94    6.5247e-16
95    -6.5650e-16
96    -1.1320e-15
97    -8.0908e-16
98    1.9993e-16
99    -2.6518e-16
100   5.4183e-17
101   3.2049e-16
102   -1.3458e-16
103   6.8370e-17
104   -6.2819e-16
105   -1.0735e-15
106   -8.1966e-17
107   -4.5748e-16
108   -7.4973e-16
109   -4.9005e-16
110   3.4082e-16
111   -8.5335e-16
112   -9.3165e-16
113   1.9497e-16
114   -6.6624e-17
115   -8.5435e-16
116   -3.7112e-16
117   -4.0652e-16
118   1.5453e-16
119   4.4395e-16
120   -1.2875e-15
121   1.2149e-15
122   -1.1618e-15
123   -1.4692e-15
124   -5.8872e-17
125   2.5126e-17
126   -3.8230e-16
127   -2.7644e-16

Decomposition over AOs for the left alpha Dyson orbital:
-2.74753394e-04
2.87905909e-04
-8.40722781e-05
5.79019567e-06
4.64435134e-16
2.43321398e-04
1.45502418e-03
-7.31145368e-04
2.40348348e-17
-6.13438143e-04
2.60969831e-04
-2.31573494e-04
-8.83598555e-17
1.26119136e-16
8.14378345e-05
-2.55989511e-04
3.72811882e-04
-2.17392116e-05
-7.57735268e-05
-2.06869011e-16
-2.12191381e-04
-3.84491372e-04
1.05484768e-03
3.61949415e-16
-1.44425258e-04
-7.13776965e-05
-6.87992538e-04
4.94087366e-17
5.38421170e-16
1.37172870e-04
9.95865885e-01
2.59286977e-02
5.67040991e-04
3.10011225e-04
4.78553696e-16
-2.35188675e-03
-3.59970653e-03
-2.35076146e-03
-6.96134130e-16
-5.52762993e-04
3.48373294e-04
-9.50097530e-04
-3.24864514e-16
1.33337294e-16
-2.33132830e-03
-2.60449693e-04
-5.61653393e-04
4.28709225e-05
1.56856152e-04
9.27697504e-17
4.02578301e-03
1.38618753e-03
-3.88607515e-03
1.68206103e-17
9.47989428e-05
4.11005824e-05
9.20924036e-05
-1.69127029e-16
-1.20933150e-16
-2.09790787e-04
-7.70624776e-06
3.20391672e-04
9.37962664e-05
5.61231387e-05
8.28863989e-17
-6.59415980e-03
3.11731233e-03
1.83603021e-03
6.65590785e-16
-8.73885594e-05
-2.91278497e-05
-2.99203202e-05
1.53893287e-16
-1.04722474e-15
6.00406279e-05
-3.11701315e-04
-6.25311055e-04
1.28554316e-04
-1.64210082e-06
2.36096053e-17
1.85370927e-03
-3.22724648e-03
3.82236518e-03
-5.73923995e-16
-7.33438656e-05
3.75820810e-05
-8.80304841e-05
3.06092771e-16
-4.16358476e-16
-2.31127823e-04
-1.23424149e-04
-5.44964171e-04
-1.81807058e-06
3.59371236e-06
-3.03028552e-16
3.94987840e-03
-8.15741259e-04
2.53560673e-04
-6.07890053e-17
-2.93570896e-04
-2.93227640e-05
-3.72227572e-04
3.70079155e-16
1.05448112e-17
-2.98851556e-04
-2.23935015e-04
1.00754306e-03
3.21961719e-04
1.87714346e-04
-5.22507560e-16
-5.67704429e-03
-2.04438396e-03
-1.21577834e-03
7.70042392e-16
3.80675058e-04
-5.51038374e-05
4.04404309e-04
-5.38815379e-16
-7.02589249e-16
5.91564850e-04
-1.00589480e-04
6.86045146e-06
-7.00035410e-05
-1.16669142e-04
2.08752317e-04
1.40820904e-03
-7.49215053e-05
-8.35555387e-04
   *****

 Right Dyson orbital norm is 0.953269

Right alpha Dyson orbital in the MO basis (canonical Q-Chem's ordering):
0     7.1987e-08
1     1.7678e-05
2     -2.7147e-05
3     2.4574e-05
4     -1.0000e+00
5     -8.6965e-05
6     -5.1676e-05
7     7.8477e-05
8     -3.6429e-17
9     7.9797e-16
10    -3.5518e-16
11    4.1763e-16
12    1.9949e-16
13    -4.5748e-16
14    -6.0715e-17
15    -3.1464e-16
16    1.9299e-16
17    -1.4398e-16
18    -6.6047e-17
19    -4.8399e-16
20    -9.9313e-17
21    -1.5992e-16
22    -3.0271e-16
23    -1.6865e-16
24    -2.2042e-16
25    3.4705e-16
26    2.9844e-16
27    -3.1388e-16
28    4.9246e-17
29    -1.9760e-18
30    3.9640e-17
31    -2.7726e-16
32    -4.2447e-16
33    6.9129e-16
34    -2.3640e-16
35    1.9299e-16
36    8.5218e-17
37    -9.9660e-16
38    -4.4658e-16
39    4.1720e-16
40    8.8124e-16
41    6.2667e-16
42    1.7217e-16
43    -5.6155e-17
44    7.0780e-18
45    -4.1894e-16
46    -6.8679e-16
47    3.1959e-16
48    -6.6078e-17
49    5.0556e-16
50    -1.0855e-15
51    -1.2650e-16
52    -1.4935e-17
53    -2.5717e-16
54    4.0115e-16
55    5.0919e-16
56    -6.4488e-16
57    -6.0542e-16
58    -6.5963e-16
59    -1.3618e-16
60    2.2549e-16
61    7.1861e-16
62    6.7177e-16
63    1.3070e-16
64    -3.5779e-17
65    1.4539e-16
66    6.6689e-16
67    1.6579e-16
68    7.0056e-16
69    -8.2736e-16
70    1.0143e-15
71    5.9178e-16
72    7.2263e-16
73    -2.2665e-16
74    5.5121e-16
75    -4.1186e-16
76    1.2375e-15
77    -2.8246e-16
78    1.5697e-16
79    7.2587e-17
80    4.3187e-17
81    4.3569e-16
82    -1.9799e-16
83    1.0033e-15
84    -1.1167e-16
85    4.0418e-16
86    5.0851e-16
87    1.7265e-16
88    -2.6389e-16
89    -1.2296e-16
90    -2.1868e-16
91    -4.2799e-17
92    -8.0169e-16
93    8.2691e-16
94    6.5247e-16
95    -6.5648e-16
96    -1.1320e-15
97    -8.0908e-16
98    1.9966e-16
99    -2.6517e-16
100   5.4454e-17
101   3.1984e-16
102   -1.3457e-16
103   6.8377e-17
104   -6.2797e-16
105   -1.0735e-15
106   -8.2074e-17
107   -4.5746e-16
108   -7.4973e-16
109   -4.9002e-16
110   3.4049e-16
111   -8.5330e-16
112   -9.3176e-16
113   1.9499e-16
114   -6.6624e-17
115   -8.5348e-16
116   -3.7058e-16
117   -4.0652e-16
118   1.5444e-16
119   4.4379e-16
120   -1.2875e-15
121   1.2148e-15
122   -1.1619e-15
123   -1.4692e-15
124   -5.9143e-17
125   2.5045e-17
126   -3.8243e-16
127   -2.7644e-16

Decomposition over AOs for the right alpha Dyson orbital:
-2.73196344e-04
2.87940088e-04
-8.40712651e-05
5.79009738e-06
4.64390721e-16
2.43418573e-04
1.45499429e-03
-7.31108841e-04
2.40794392e-17
-6.13450411e-04
2.60967303e-04
-2.31584803e-04
-8.83496860e-17
1.26118465e-16
8.14295573e-05
-2.54969908e-04
3.72829737e-04
-2.17426313e-05
-7.57757765e-05
-2.06866475e-16
-2.12168847e-04
-3.84435938e-04
1.05486680e-03
3.61969872e-16
-1.44421486e-04
-7.13710554e-05
-6.87991218e-04
4.94186283e-17
5.38408199e-16
1.37167572e-04
9.95865882e-01
2.59287055e-02
5.67040302e-04
3.10012363e-04
4.78508497e-16
-2.35191171e-03
-3.59980196e-03
-2.35076567e-03
-6.96128472e-16
-5.52763543e-04
3.48372526e-04
-9.50099592e-04
-3.24834796e-16
1.33321428e-16
-2.33132591e-03
-2.81897924e-04
-5.62323539e-04
4.28793246e-05
1.56876468e-04
9.27636842e-17
4.02589351e-03
1.38621868e-03
-3.88605928e-03
1.68168334e-17
9.48653409e-05
4.10989998e-05
9.21647579e-05
-1.69136303e-16
-1.20927778e-16
-2.09734691e-04
-1.92448625e-05
3.20033977e-04
9.38015940e-05
5.61259247e-05
8.28781357e-17
-6.59402193e-03
3.11729132e-03
1.83595930e-03
6.65588034e-16
-8.73510985e-05
-2.91271949e-05
-2.98814251e-05
1.53897763e-16
-1.04719295e-15
6.00704150e-05
-3.07901711e-04
-6.25204049e-04
1.28553287e-04
-1.64322951e-06
2.36183620e-17
1.85359819e-03
-3.22719335e-03
3.82228471e-03
-5.73946864e-16
-7.33436170e-05
3.75826893e-05
-8.80313375e-05
3.06084451e-16
-4.16319331e-16
-2.31133332e-04
-1.23441818e-04
-5.44954764e-04
-1.81942508e-06
3.59448533e-06
-3.03016105e-16
3.94982005e-03
-8.15726116e-04
2.53556683e-04
-6.07799104e-17
-2.93566765e-04
-2.93226497e-05
-3.72222988e-04
3.70064717e-16
1.05496005e-17
-2.98845424e-04
-2.24392486e-04
1.00754393e-03
3.21961603e-04
1.87714288e-04
-5.22477979e-16
-5.67711989e-03
-2.04439312e-03
-1.21579224e-03
7.70020655e-16
3.80684293e-04
-5.51045051e-05
4.04412141e-04
-5.38794421e-16
-7.02575332e-16
5.91572686e-04
-1.00587188e-04
6.86246799e-06
-6.99977773e-05
-1.16662389e-04
2.08754935e-04
1.40817533e-03
-7.49170752e-05
-8.35557344e-04
   *****

     End transition

 Dyson orbitals calculation:   CPU 0.03 s  wall 0.03 s

 Total ccman2 time:   CPU 269.48 s  wall 146.37 s


 --------------------------------------------------------------
             Orbital Energies (a.u.) and Symmetries
 --------------------------------------------------------------

 Alpha MOs, Unrestricted
 -- Occupied --                  
-20.579 -20.549 -15.637 -15.616 -11.412 -11.371 -11.291 -11.283
  1 A'    2 A'    3 A'    4 A'    5 A'    6 A'    7 A'    8 A'                 
 -1.439  -1.419  -1.308  -1.237  -1.122  -0.935  -0.893  -0.806
  9 A'   10 A'   11 A'   12 A'   13 A'   14 A'   15 A'   16 A'                 
 -0.760  -0.696  -0.684  -0.684  -0.652  -0.622  -0.608  -0.602
 17 A'   18 A'    1 A"   19 A'   20 A'   21 A'    2 A"   22 A'                 
 -0.572  -0.484  -0.469  -0.458  -0.438  -0.249
  3 A"   23 A'    4 A"   24 A'    5 A"    6 A"                                 
 -- Virtual --                   
  0.166   0.198   0.252   0.257   0.283   0.287   0.371   0.408
  7 A"   25 A'   26 A'   27 A'    8 A"   28 A'   29 A'   30 A'                 
  0.415   0.447   0.505   0.533   0.543   0.665   0.668   0.709
 31 A'   32 A'   33 A'   34 A'   35 A'   36 A'    9 A"   37 A'                 
  0.731   0.767   0.778   0.780   0.802   0.852   0.867   0.909
 38 A'   10 A"   11 A"   39 A'   40 A'   12 A"   41 A'   42 A'                 
  0.940   0.983   0.989   1.023   1.070   1.083   1.094   1.100
 43 A'   13 A"   44 A'   45 A'   46 A'   47 A'   14 A"   48 A'                 
  1.107   1.140   1.173   1.230   1.246   1.266   1.316   1.319
 49 A'   50 A'   51 A'   52 A'   53 A'   15 A"   54 A'   16 A"                 
  1.356   1.378   1.417   1.459   1.553   1.588   1.589   1.641
 55 A'   56 A'   17 A"   57 A'   58 A'   18 A"   59 A'   19 A"                 
  1.664   1.678   1.684   1.711   1.716   1.819   1.866   2.021
 20 A"   60 A'   21 A"   61 A'   22 A"   62 A'   63 A'   64 A'                 
  2.040   2.056   2.086   2.088   2.110   2.143   2.193   2.249
 65 A'   23 A"   66 A'   24 A"   67 A'   68 A'   69 A'   25 A"                 
  2.264   2.290   2.302   2.378   2.447   2.461   2.484   2.534
 70 A'   26 A"   71 A'   72 A'   73 A'   27 A"   74 A'   75 A'                 
  2.577   2.618   2.625   2.716   2.868   2.923   2.934   2.973
 28 A"   29 A"   76 A'   77 A'   78 A'   30 A"   79 A'   31 A"                 
  2.974   3.002   3.085   3.136   3.174   3.326   3.346   3.361
 80 A'   32 A"   81 A'   82 A'   83 A'   84 A'   85 A'   86 A'                 
  3.590   3.774   4.334   4.367   4.410   4.543   4.587   4.788
 87 A'   88 A'   89 A'   90 A'   91 A'   92 A'   93 A'   94 A'                 
  4.994   5.067
 95 A'   96 A'                                                                 

 Beta MOs, Unrestricted
 -- Occupied --                  
-20.563 -20.547 -15.631 -15.616 -11.413 -11.378 -11.272 -11.261
  1 A'    2 A'    3 A'    4 A'    5 A'    6 A'    7 A'    8 A'                 
 -1.426  -1.396  -1.286  -1.225  -1.044  -0.898  -0.886  -0.788
  9 A'   10 A'   11 A'   12 A'   13 A'   14 A'   15 A'   16 A'                 
 -0.750  -0.684  -0.669  -0.643  -0.640  -0.608  -0.592  -0.541
 17 A'   18 A'   19 A'   20 A'    1 A"   21 A'   22 A'    2 A"                 
 -0.473  -0.455  -0.446  -0.398
 23 A'    3 A"   24 A'    4 A"                                                 
 -- Virtual --                   
  0.002   0.189   0.203   0.207   0.254   0.267   0.308   0.364
  5 A"    6 A"   25 A'    7 A"   26 A'   27 A'   28 A'    8 A"                 
  0.383   0.407   0.422   0.455   0.505   0.541   0.560   0.680
 29 A'   30 A'   31 A'   32 A'   33 A'   34 A'   35 A'   36 A'                 
  0.711   0.734   0.756   0.791   0.804   0.808   0.836   0.881
  9 A"   37 A'   38 A'   39 A'   10 A"   40 A'   11 A"   41 A'                 
  0.911   0.926   0.950   0.998   1.004   1.031   1.080   1.095
 42 A'   12 A"   43 A'   44 A'   13 A"   45 A'   46 A'   47 A'                 
  1.109   1.110   1.117   1.150   1.178   1.237   1.263   1.316
 48 A'   14 A"   49 A'   50 A'   51 A'   52 A'   53 A'   15 A"                 
  1.321   1.346   1.365   1.384   1.452   1.465   1.558   1.599
 54 A'   16 A"   55 A'   56 A'   17 A"   57 A'   58 A'   59 A'                 
  1.610   1.657   1.685   1.708   1.715   1.740   1.754   1.828
 18 A"   19 A"   60 A'   20 A"   61 A'   21 A"   22 A"   62 A'                 
  1.878   2.024   2.048   2.086   2.097   2.097   2.121   2.149
 63 A'   64 A'   65 A'   23 A"   66 A'   24 A"   67 A'   68 A'                 
  2.225   2.274   2.279   2.301   2.323   2.393   2.460   2.509
 69 A'   70 A'   25 A"   26 A"   71 A'   72 A'   73 A'   74 A'                 
  2.511   2.536   2.599   2.632   2.654   2.720   2.888   2.935
 27 A"   75 A'   28 A"   76 A'   29 A"   77 A'   78 A'   30 A"                 
  2.963   2.975   2.996   3.009   3.094   3.143   3.181   3.332
 79 A'   80 A'   31 A"   32 A"   81 A'   82 A'   83 A'   84 A'                 
  3.350   3.363   3.592   3.778   4.341   4.375   4.415   4.562
 85 A'   86 A'   87 A'   88 A'   89 A'   90 A'   91 A'   92 A'                 
  4.592   4.809   4.998   5.070
 93 A'   94 A'   95 A'   96 A'                                                 
 --------------------------------------------------------------

          Ground-State Mulliken Net Atomic Charges

     Atom                 Charge (a.u.)    Spin (a.u.)
  --------------------------------------------------------
      1 N                    -0.946347       0.018272
      2 N                    -0.846177       0.082324
      3 C                     1.041006      -0.035825
      4 C                     0.056399       0.979861
      5 C                    -0.278183       1.029967
      6 C                     0.778432      -0.319228
      7 O                    -0.536761       0.388005
      8 O                    -0.605245       0.050355
      9 H                     0.423934      -0.003200
     10 H                     0.422489      -0.014530
     11 H                     0.227059      -0.096709
     12 H                     0.263394      -0.079293
  --------------------------------------------------------
  Sum of atomic charges =    -0.000000
  Sum of spin   charges =     2.000000

 -----------------------------------------------------------------
                    Cartesian Multipole Moments
 -----------------------------------------------------------------
    Charge (ESU x 10^10)
                 0.0000
    Dipole Moment (Debye)
         X      -0.0529      Y       4.1395      Z       0.0000
       Tot       4.1398
    Quadrupole Moments (Debye-Ang)
        XX     -56.8491     XY      -1.5217     YY     -39.2340
        XZ      -0.0000     YZ      -0.0000     ZZ     -45.8058
    Octopole Moments (Debye-Ang^2)
       XXX      -6.9568    XXY      32.1956    XYY      -1.1273
       YYY       0.9417    XXZ       0.0000    XYZ       0.0000
       YYZ       0.0000    XZZ      -0.4202    YZZ      -4.4493
       ZZZ       0.0000
    Hexadecapole Moments (Debye-Ang^3)
      XXXX    -684.8672   XXXY     -14.9396   XXYY    -165.6086
      XYYY      -8.7257   YYYY    -314.8626   XXXZ      -0.0000
      XXYZ      -0.0000   XYYZ      -0.0000   YYYZ      -0.0000
      XXZZ    -107.2749   XYZZ      -1.1716   YYZZ     -73.4236
      XZZZ      -0.0000   YZZZ      -0.0000   ZZZZ     -40.7195
 -----------------------------------------------------------------
Archival summary:
1\1\Annas-MacBook-Pro-4.local\SP\ProcedureUnspecified\6-31G*\2244(3)\WedMay2906:29:552019WedMay2906:29:552019\0\\#,ProcedureUnspecified,6-31G*,\\0,3\N\H,1,1.01538\C,1,1.38049,2,115.582\O,3,1.2104,1,124.196,2,0,0\N,3,1.38945,1,113.089,2,-180,0\H,5,1.01132,3,115.073,1,-180,0\C,5,1.3722,3,123.45,1,-0,0\H,7,1.09034,5,115.558,3,-180,0\C,7,1.34729,5,122.094,3,-0,0\H,9,1.08676,7,122.157,5,-180,0\C,1,1.40477,2,116.161,3,180,0\O,11,1.2125,1,120.408,2,-0,0\\HF=-412.351526\\@

 Total job time:  164.03s(wall), 287.10s(cpu) 
 Wed May 29 06:29:55 2019

        *************************************************************
        *                                                           *
        *  Thank you very much for using Q-Chem.  Have a nice day.  *
        *                                                           *
        *************************************************************


