                  Welcome to Q-Chem
     A Quantum Leap Into The Future Of Chemistry


 Q-Chem 5.2 (devel), Q-Chem, Inc., Pleasanton, CA (2019)

 Yihan Shao,  Zhengting Gan,  E. Epifanovsky,  A. T. B. Gilbert,  M. Wormit,  
 J. Kussmann,  A. W. Lange,  A. Behn,  Jia Deng,  Xintian Feng,  D. Ghosh,  
 M. Goldey,  P. R. Horn,  L. D. Jacobson,  I. Kaliman,  T. Kus,  A. Landau,  
 Jie Liu,  E. I. Proynov,  R. M. Richard,  R. P. Steele,  E. J. Sundstrom,  
 H. L. Woodcock III,  P. M. Zimmerman,  D. Zuev,  B. Albrecht,  E. Alguire,  
 S. A. Baeppler,  D. Barton,  Z. Benda,  Y. A. Bernard,  E. J. Berquist,  
 K. B. Bravaya,  H. Burton,  D. Casanova,  Chun-Min Chang,  Yunqing Chen,  
 A. Chien,  K. D. Closser,  M. P. Coons,  S. Coriani,  S. Dasgupta,  
 A. L. Dempwolff,  M. Diedenhofen,  Hainam Do,  R. G. Edgar,  Po-Tung Fang,  
 S. Faraji,  S. Fatehi,  Qingguo Feng,  K. D. Fenk,  J. Fosso-Tande,  
 J. Gayvert,  Qinghui Ge,  A. Ghysels,  G. Gidofalvi,  J. Gomes,  
 J. Gonthier,  A. Gunina,  D. Hait,  M. W. D. Hanson-Heine,  
 P. H. P. Harbach,  A. W. Hauser,  M. F. Herbst,  J. E. Herr,  
 E. G. Hohenstein,  Z. C. Holden,  Kerwin Hui,  B. C. Huynh,  T.-C. Jagau,  
 Hyunjun Ji,  B. Kaduk,  K. Khistyaev,  Jaehoon Kim,  P. Klunzinger,  K. Koh,  
 D. Kosenkov,  L. Koulias,  T. Kowalczyk,  C. M. Krauter,  A. Kunitsa,  
 Ka Un Lao,  A. Laurent,  K. V. Lawler,  Joonho Lee,  D. Lefrancois,  
 S. Lehtola,  D. S. Levine,  Yi-Pei Li,  You-Sheng Lin,  Fenglai Liu,  
 E. Livshits,  A. Luenser,  P. Manohar,  E. Mansoor,  S. F. Manzer,  
 Shan-Ping Mao,  Yuezhi Mao,  N. Mardirossian,  A. V. Marenich,  
 T. Markovich,  L. A. Martinez-Martinez,  S. A. Maurer,  N. J. Mayhall,  
 S. C. McKenzie,  J.-M. Mewes,  P. Morgante,  A. F. Morrison,  
 J. W. Mullinax,  K. Nanda,  T. S. Nguyen-Beck,  R. Olivares-Amaya,  
 J. A. Parkhill,  Zheng Pei,  T. M. Perrine,  F. Plasser,  P. Pokhilko,  
 S. Prager,  A. Prociuk,  E. Ramos,  D. R. Rehn,  F. Rob,  M. Scheurer,  
 M. Schneider,  N. Sergueev,  S. M. Sharada,  S. Sharma,  D. W. Small,  
 T. Stauch,  T. Stein,  Yu-Chuan Su,  A. J. W. Thom,  A. Tkatchenko,  
 T. Tsuchimochi,  N. M. Tubman,  L. Vogt,  M. L. Vidal,  O. Vydrov,  
 M. A. Watson,  J. Wenzel,  M. de Wergifosse,  T. A. Wesolowski,  A. White,  
 J. Witte,  A. Yamada,  Jun Yang,  K. Yao,  S. Yeganeh,  S. R. Yost,  
 Zhi-Qiang You,  A. Zech,  Igor Ying Zhang,  Xing Zhang,  Yan Zhao,  
 Ying Zhu,  B. R. Brooks,  G. K. L. Chan,  C. J. Cramer,  M. S. Gordon,  
 W. J. Hehre,  A. Klamt,  M. W. Schmidt,  C. D. Sherrill,  D. G. Truhlar,  
 A. Aspuru-Guzik,  R. Baer,  A. T. Bell,  N. A. Besley,  Jeng-Da Chai,  
 A. E. DePrince, III,  R. A. DiStasio Jr.,  A. Dreuw,  B. D. Dunietz,  
 T. R. Furlani,  Chao-Ping Hsu,  Yousung Jung,  Jing Kong,  D. S. Lambrecht,  
 WanZhen Liang,  C. Ochsenfeld,  V. A. Rassolov,  L. V. Slipchenko,  
 J. E. Subotnik,  T. Van Voorhis,  J. M. Herbert,  A. I. Krylov,  
 P. M. W. Gill,  M. Head-Gordon

 Contributors to earlier versions of Q-Chem not listed above: 
 R. D. Adamson,  B. Austin,  J. Baker,  G. J. O. Beran,  K. Brandhorst,  
 S. T. Brown,  E. F. C. Byrd,  A. K. Chakraborty,  C.-L. Cheng,  
 Siu Hung Chien,  D. M. Chipman,  D. L. Crittenden,  H. Dachsel,  
 R. J. Doerksen,  A. D. Dutoi,  L. Fusti-Molnar,  W. A. Goddard III,  
 A. Golubeva-Zadorozhnaya,  S. R. Gwaltney,  G. Hawkins,  A. Heyden,  
 S. Hirata,  G. Kedziora,  F. J. Keil,  C. Kelley,  Jihan Kim,  R. A. King,  
 R. Z. Khaliullin,  P. P. Korambath,  W. Kurlancheek,  A. M. Lee,  M. S. Lee,  
 S. V. Levchenko,  Ching Yeh Lin,  D. Liotard,  R. C. Lochan,  I. Lotan,  
 P. E. Maslen,  N. Nair,  D. P. O'Neill,  D. Neuhauser,  E. Neuscamman,  
 C. M. Oana,  R. Olson,  B. Peters,  R. Peverati,  P. A. Pieniazek,  
 Y. M. Rhee,  J. Ritchie,  M. A. Rohrdanz,  E. Rosta,  N. J. Russ,  
 H. F. Schaefer III,  N. E. Schultz,  N. Shenvi,  A. C. Simmonett,  A. Sodt,  
 D. Stuck,  K. S. Thanthiriwatte,  V. Vanovschi,  Tao Wang,  A. Warshel,  
 C. F. Williams,  Q. Wu,  X. Xu,  W. Zhang

 Please cite Q-Chem as follows:
 Y. Shao et al., Mol. Phys. 113, 184-215 (2015)
 DOI: 10.1080/00268976.2014.952696

 Q-Chem 5.2.0 for Mac (Intel) OS X

 Parts of Q-Chem use Armadillo 8.300.2 (Tropical Shenanigans).
 http://arma.sourceforge.net/

 Q-Chem begins on Wed May 29 06:38:29 2019  

Annas-MacBook-Pro-4.local
Host: 0

     Scratch files written to /scratch/qchem7805//
Processing $rem in /Users/annakrylov/.qchemrc:
	CC_MEMORY  8000
NAlpha2: 58
NElect   58
Mult     1

Checking the input file for inconsistencies... 	...done.

--------------------------------------------------------------
User input:
--------------------------------------------------------------
$comment
I think this is equilibrium geometry. I symmetrized it with IQmol
$end

$molecule
0 1
N          0.00000        0.95064        0.03617
N          0.00000       -1.01646       -1.17678
C          0.00000        0.37240       -1.21738
C          0.00000       -1.73906       -0.01025
C          0.00000       -1.14569        1.19934
C          0.00000        0.31332        1.28805
O          0.00000        0.96679        2.30939
O          0.00000        0.99654       -2.25445
H          0.00000        1.96592        0.05068
H          0.00000       -1.47161       -2.07989
H          0.00000       -2.82299       -0.12835
H          0.00000       -1.71696        2.12384
$end

$rem
JOBTYPE SP
BASIS 6-31G*
METHOD HF
$end

--------------------------------------------------------------
 ----------------------------------------------------------------
             Standard Nuclear Orientation (Angstroms)
    I     Atom           X                Y                Z
 ----------------------------------------------------------------
    1      N       0.0354846971    -0.9850555213    -0.0000000000
    2      N      -1.1754105895     0.9833099726    -0.0000000000
    3      C      -1.2174608195    -0.4055068756    -0.0000000000
    4      C      -0.0081266842     1.7046914842     0.0000000000
    5      C       1.2008430574     1.1100587500     0.0000000000
    6      C       1.2880295062    -0.3490430859     0.0000000000
    7      O       2.3086865939    -1.0035792161     0.0000000000
    8      O      -2.2551819831    -1.0285636235    -0.0000000000
    9      H       0.0489345305    -2.0003501192    -0.0000000000
   10      H      -2.0780448281     1.4394027548    -0.0000000000
   11      H      -0.1250947767     2.7887442137     0.0000000000
   12      H       2.1259390754     1.6803630727     0.0000000000
 ----------------------------------------------------------------
 Molecular Point Group                 Cs    NOp =  2
 Largest Abelian Subgroup              Cs    NOp =  2
 Nuclear Repulsion Energy =         356.75852787 hartrees
 There are       29 alpha and       29 beta electrons
 Requested basis set is 6-31G(d)
 There are 40 shells and 128 basis functions

 Total QAlloc Memory Limit   2000 MB
 Mega-Array Size       188 MB
 MEM_STATIC part       192 MB

                       Distance Matrix (Angstroms)
             N (  1)   N (  2)   C (  3)   C (  4)   C (  5)   C (  6)
   N (  2)  2.311002
   C (  3)  1.380489  1.389453
   C (  4)  2.690101  1.372204  2.432165
   C (  5)  2.397408  2.379632  2.853968  1.347292
   C (  6)  1.404771  2.800661  2.506126  2.428548  1.461704
   O (  7)  2.273277  4.010818  3.576508  3.564036  2.386374  1.212501
   O (  8)  2.291080  2.283318  1.210399  3.538353  4.064211  3.607783
   H (  9)  1.015384  3.225097  2.036488  3.705481  3.316856  2.064503
   H ( 10)  3.216365  1.011321  2.035754  2.086849  3.295387  3.811692
   H ( 11)  3.777215  2.088721  3.375871  1.090345  2.139181  3.441312
   H ( 12)  3.387397  3.374136  3.940708  2.134204  1.086761  2.195582
             O (  7)   O (  8)   H (  9)   H ( 10)   H ( 11)
   O (  8)  4.563937
   H (  9)  2.469824  2.500664
   H ( 10)  5.021113  2.474315  4.044248
   H ( 11)  4.506108  4.371397  4.792255  2.373760
   H ( 12)  2.690157  5.150971  4.226298  4.210884  2.509116

 A cutoff of  1.0D-08 yielded    717 shell pairs
 There are      7800 function pairs
 Smallest overlap matrix eigenvalue = 1.23E-03

 Scale SEOQF with 1.000000e-01/1.000000e-01/1.000000e+00

 Standard Electronic Orientation quadrupole field applied
 Nucleus-field energy     =     0.0000000099 hartrees
 Guess from superposition of atomic densities
 Warning:  Energy on first SCF cycle will be non-variational
 SAD guess density has 58.000000 electrons

 -----------------------------------------------------------------------
  General SCF calculation program by
  Eric Jon Sundstrom, Paul Horn, Yuezhi Mao, Dmitri Zuev, Alec White,
  David Stuck, Shaama M.S., Shane Yost, Joonho Lee, David Small,
  Daniel Levine, Susi Lehtola, Hugh Burton, Evgeny Epifanovsky
 -----------------------------------------------------------------------
 Hartree-Fock
 A restricted SCF calculation will be
 performed using DIIS
 SCF converges when DIIS error is below 1.0e-05
 ---------------------------------------
  Cycle       Energy         DIIS error
 ---------------------------------------
    1    -415.3533432750      7.97e-02  
    2    -412.2260691300      1.10e-02  
    3    -412.3407875155      8.99e-03  
    4    -412.4628642491      1.00e-03  
    5    -412.4665131724      3.65e-04  
    6    -412.4669918282      1.33e-04  
    7    -412.4671188661      6.50e-05  
    8    -412.4671431494      2.44e-05  
    9    -412.4671452482      7.91e-06  Convergence criterion met
 ---------------------------------------
 SCF time:   CPU 2.74s  wall 3.00s 
 SCF   energy in the final basis set =     -412.4671452482
 Total energy in the final basis set =     -412.4671452482

 --------------------------------------------------------------
             Orbital Energies (a.u.) and Symmetries
 --------------------------------------------------------------

 Alpha MOs, Restricted
 -- Occupied --                  
-20.551 -20.546 -15.647 -15.628 -11.420 -11.381 -11.341 -11.255
  1 A'    2 A'    3 A'    4 A'    5 A'    6 A'    7 A'    8 A'                 
 -1.434  -1.398  -1.308  -1.241  -1.083  -0.926  -0.895  -0.801
  9 A'   10 A'   11 A'   12 A'   13 A'   14 A'   15 A'   16 A'                 
 -0.759  -0.709  -0.671  -0.662  -0.646  -0.610  -0.596  -0.565
 17 A'   18 A'   19 A'    1 A"   20 A'   21 A'   22 A'    2 A"                 
 -0.520  -0.477  -0.441  -0.429  -0.362
  3 A"   23 A'   24 A'    4 A"    5 A"                                         
 -- Virtual --                   
  0.104   0.179   0.191   0.249   0.256   0.298   0.321   0.373
  6 A"    7 A"   25 A'   26 A'   27 A'   28 A'    8 A"   29 A'                 
  0.404   0.422   0.443   0.501   0.534   0.551   0.667   0.692
 30 A'   31 A'   32 A'   33 A'   34 A'   35 A'   36 A'    9 A"                 
  0.714   0.741   0.779   0.782   0.799   0.805   0.869   0.885
 37 A'   38 A'   39 A'   10 A"   40 A'   11 A"   41 A'   12 A"                 
  0.910   0.946   0.984   0.998   1.024   1.062   1.078   1.094
 42 A'   43 A'   13 A"   44 A'   45 A'   46 A'   47 A'   14 A"                 
  1.098   1.113   1.146   1.170   1.230   1.261   1.303   1.315
 48 A'   49 A'   50 A'   51 A'   52 A'   53 A'   15 A"   54 A'                 
  1.331   1.364   1.386   1.431   1.453   1.557   1.591   1.596
 16 A"   55 A'   56 A'   17 A"   57 A'   58 A'   59 A'   18 A"                 
  1.647   1.682   1.687   1.706   1.713   1.717   1.816   1.868
 19 A"   60 A'   20 A"   61 A'   21 A"   22 A"   62 A'   63 A'                 
  2.024   2.047   2.081   2.095   2.097   2.119   2.144   2.206
 64 A'   65 A'   23 A"   24 A"   66 A'   67 A'   68 A'   69 A'                 
  2.270   2.272   2.290   2.311   2.382   2.452   2.480   2.485
 70 A'   25 A"   26 A"   71 A'   72 A'   73 A'   27 A"   74 A'                 
  2.528   2.587   2.629   2.632   2.712   2.877   2.934   2.936
 75 A'   28 A"   29 A"   76 A'   77 A'   78 A'   30 A"   79 A'                 
  2.972   2.977   3.005   3.081   3.135   3.170   3.330   3.354
 80 A'   31 A"   32 A"   81 A'   82 A'   83 A'   84 A'   85 A'                 
  3.365   3.588   3.769   4.324   4.374   4.404   4.553   4.592
 86 A'   87 A'   88 A'   89 A'   90 A'   91 A'   92 A'   93 A'                 
  4.782   4.992   5.074
 94 A'   95 A'   96 A'                                                         

 Beta MOs, Restricted
 -- Occupied --                  
-20.551 -20.546 -15.647 -15.628 -11.420 -11.381 -11.341 -11.255
  1 A'    2 A'    3 A'    4 A'    5 A'    6 A'    7 A'    8 A'                 
 -1.434  -1.398  -1.308  -1.241  -1.083  -0.926  -0.895  -0.801
  9 A'   10 A'   11 A'   12 A'   13 A'   14 A'   15 A'   16 A'                 
 -0.759  -0.709  -0.671  -0.662  -0.646  -0.610  -0.596  -0.565
 17 A'   18 A'   19 A'    1 A"   20 A'   21 A'   22 A'    2 A"                 
 -0.520  -0.477  -0.441  -0.429  -0.362
  3 A"   23 A'   24 A'    4 A"    5 A"                                         
 -- Virtual --                   
  0.104   0.179   0.191   0.249   0.256   0.298   0.321   0.373
  6 A"    7 A"   25 A'   26 A'   27 A'   28 A'    8 A"   29 A'                 
  0.404   0.422   0.443   0.501   0.534   0.551   0.667   0.692
 30 A'   31 A'   32 A'   33 A'   34 A'   35 A'   36 A'    9 A"                 
  0.714   0.741   0.779   0.782   0.799   0.805   0.869   0.885
 37 A'   38 A'   39 A'   10 A"   40 A'   11 A"   41 A'   12 A"                 
  0.910   0.946   0.984   0.998   1.024   1.062   1.078   1.094
 42 A'   43 A'   13 A"   44 A'   45 A'   46 A'   47 A'   14 A"                 
  1.098   1.113   1.146   1.170   1.230   1.261   1.303   1.315
 48 A'   49 A'   50 A'   51 A'   52 A'   53 A'   15 A"   54 A'                 
  1.331   1.364   1.386   1.431   1.453   1.557   1.591   1.596
 16 A"   55 A'   56 A'   17 A"   57 A'   58 A'   59 A'   18 A"                 
  1.647   1.682   1.687   1.706   1.713   1.717   1.816   1.868
 19 A"   60 A'   20 A"   61 A'   21 A"   22 A"   62 A'   63 A'                 
  2.024   2.047   2.081   2.095   2.097   2.119   2.144   2.206
 64 A'   65 A'   23 A"   24 A"   66 A'   67 A'   68 A'   69 A'                 
  2.270   2.272   2.290   2.311   2.382   2.452   2.480   2.485
 70 A'   25 A"   26 A"   71 A'   72 A'   73 A'   27 A"   74 A'                 
  2.528   2.587   2.629   2.632   2.712   2.877   2.934   2.936
 75 A'   28 A"   29 A"   76 A'   77 A'   78 A'   30 A"   79 A'                 
  2.972   2.977   3.005   3.081   3.135   3.170   3.330   3.354
 80 A'   31 A"   32 A"   81 A'   82 A'   83 A'   84 A'   85 A'                 
  3.365   3.588   3.769   4.324   4.374   4.404   4.553   4.592
 86 A'   87 A'   88 A'   89 A'   90 A'   91 A'   92 A'   93 A'                 
  4.782   4.992   5.074
 94 A'   95 A'   96 A'                                                         
 --------------------------------------------------------------

          Ground-State Mulliken Net Atomic Charges

     Atom                 Charge (a.u.)
  ----------------------------------------
      1 N                    -0.929367
      2 N                    -0.866113
      3 C                     1.045142
      4 C                     0.175159
      5 C                    -0.409233
      6 C                     0.837676
      7 O                    -0.599256
      8 O                    -0.607801
      9 H                     0.429504
     10 H                     0.425933
     11 H                     0.251623
     12 H                     0.246732
  ----------------------------------------
  Sum of atomic charges =     0.000000

 -----------------------------------------------------------------
                    Cartesian Multipole Moments
 -----------------------------------------------------------------
    Charge (ESU x 10^10)
                 0.0000
    Dipole Moment (Debye)
         X      -1.3276      Y       4.6905      Z       0.0000
       Tot       4.8748
    Quadrupole Moments (Debye-Ang)
        XX     -58.6539     XY      -2.4887     YY     -37.4908
        XZ      -0.0000     YZ       0.0000     ZZ     -46.1290
    Octopole Moments (Debye-Ang^2)
       XXX     -11.0428    XXY      32.6801    XYY      -4.8879
       YYY       6.9701    XXZ       0.0000    XYZ       0.0000
       YYZ       0.0000    XZZ      -1.6174    YZZ      -4.5789
       ZZZ       0.0000
    Hexadecapole Moments (Debye-Ang^3)
      XXXX    -695.1947   XXXY     -13.1148   XXYY    -169.9473
      XYYY     -13.0312   YYYY    -296.7491   XXXZ      -0.0000
      XXYZ       0.0000   XYYZ      -0.0000   YYYZ      -0.0000
      XXZZ    -108.5511   XYZZ      -2.5834   YYZZ     -72.9081
      XZZZ      -0.0000   YZZZ       0.0000   ZZZZ     -41.4229
 -----------------------------------------------------------------
Archival summary:
1\1\Annas-MacBook-Pro-4.local\SP\HF\6-31G*\2244\WedMay2906:38:322019WedMay2906:38:322019\0\\#,HF,6-31G*,\\0,1\N\H,1,1.01538\C,1,1.38049,2,115.582\O,3,1.2104,1,124.196,2,0,0\N,3,1.38945,1,113.089,2,-180,0\H,5,1.01132,3,115.073,1,-180,0\C,5,1.3722,3,123.45,1,-0,0\H,7,1.09034,5,115.558,3,-180,0\C,7,1.34729,5,122.094,3,-0,0\H,9,1.08676,7,122.157,5,-180,0\C,1,1.40477,2,116.161,3,180,0\O,11,1.2125,1,120.408,2,-0,0\\HF=-412.467145\\@

 Total job time:  2.84s(wall), 2.84s(cpu) 
 Wed May 29 06:38:32 2019

        *************************************************************
        *                                                           *
        *  Thank you very much for using Q-Chem.  Have a nice day.  *
        *                                                           *
        *************************************************************


 
User input: 2 of 2 
 
                  Welcome to Q-Chem
     A Quantum Leap Into The Future Of Chemistry


 Q-Chem 5.2 (devel), Q-Chem, Inc., Pleasanton, CA (2019)

 Yihan Shao,  Zhengting Gan,  E. Epifanovsky,  A. T. B. Gilbert,  M. Wormit,  
 J. Kussmann,  A. W. Lange,  A. Behn,  Jia Deng,  Xintian Feng,  D. Ghosh,  
 M. Goldey,  P. R. Horn,  L. D. Jacobson,  I. Kaliman,  T. Kus,  A. Landau,  
 Jie Liu,  E. I. Proynov,  R. M. Richard,  R. P. Steele,  E. J. Sundstrom,  
 H. L. Woodcock III,  P. M. Zimmerman,  D. Zuev,  B. Albrecht,  E. Alguire,  
 S. A. Baeppler,  D. Barton,  Z. Benda,  Y. A. Bernard,  E. J. Berquist,  
 K. B. Bravaya,  H. Burton,  D. Casanova,  Chun-Min Chang,  Yunqing Chen,  
 A. Chien,  K. D. Closser,  M. P. Coons,  S. Coriani,  S. Dasgupta,  
 A. L. Dempwolff,  M. Diedenhofen,  Hainam Do,  R. G. Edgar,  Po-Tung Fang,  
 S. Faraji,  S. Fatehi,  Qingguo Feng,  K. D. Fenk,  J. Fosso-Tande,  
 J. Gayvert,  Qinghui Ge,  A. Ghysels,  G. Gidofalvi,  J. Gomes,  
 J. Gonthier,  A. Gunina,  D. Hait,  M. W. D. Hanson-Heine,  
 P. H. P. Harbach,  A. W. Hauser,  M. F. Herbst,  J. E. Herr,  
 E. G. Hohenstein,  Z. C. Holden,  Kerwin Hui,  B. C. Huynh,  T.-C. Jagau,  
 Hyunjun Ji,  B. Kaduk,  K. Khistyaev,  Jaehoon Kim,  P. Klunzinger,  K. Koh,  
 D. Kosenkov,  L. Koulias,  T. Kowalczyk,  C. M. Krauter,  A. Kunitsa,  
 Ka Un Lao,  A. Laurent,  K. V. Lawler,  Joonho Lee,  D. Lefrancois,  
 S. Lehtola,  D. S. Levine,  Yi-Pei Li,  You-Sheng Lin,  Fenglai Liu,  
 E. Livshits,  A. Luenser,  P. Manohar,  E. Mansoor,  S. F. Manzer,  
 Shan-Ping Mao,  Yuezhi Mao,  N. Mardirossian,  A. V. Marenich,  
 T. Markovich,  L. A. Martinez-Martinez,  S. A. Maurer,  N. J. Mayhall,  
 S. C. McKenzie,  J.-M. Mewes,  P. Morgante,  A. F. Morrison,  
 J. W. Mullinax,  K. Nanda,  T. S. Nguyen-Beck,  R. Olivares-Amaya,  
 J. A. Parkhill,  Zheng Pei,  T. M. Perrine,  F. Plasser,  P. Pokhilko,  
 S. Prager,  A. Prociuk,  E. Ramos,  D. R. Rehn,  F. Rob,  M. Scheurer,  
 M. Schneider,  N. Sergueev,  S. M. Sharada,  S. Sharma,  D. W. Small,  
 T. Stauch,  T. Stein,  Yu-Chuan Su,  A. J. W. Thom,  A. Tkatchenko,  
 T. Tsuchimochi,  N. M. Tubman,  L. Vogt,  M. L. Vidal,  O. Vydrov,  
 M. A. Watson,  J. Wenzel,  M. de Wergifosse,  T. A. Wesolowski,  A. White,  
 J. Witte,  A. Yamada,  Jun Yang,  K. Yao,  S. Yeganeh,  S. R. Yost,  
 Zhi-Qiang You,  A. Zech,  Igor Ying Zhang,  Xing Zhang,  Yan Zhao,  
 Ying Zhu,  B. R. Brooks,  G. K. L. Chan,  C. J. Cramer,  M. S. Gordon,  
 W. J. Hehre,  A. Klamt,  M. W. Schmidt,  C. D. Sherrill,  D. G. Truhlar,  
 A. Aspuru-Guzik,  R. Baer,  A. T. Bell,  N. A. Besley,  Jeng-Da Chai,  
 A. E. DePrince, III,  R. A. DiStasio Jr.,  A. Dreuw,  B. D. Dunietz,  
 T. R. Furlani,  Chao-Ping Hsu,  Yousung Jung,  Jing Kong,  D. S. Lambrecht,  
 WanZhen Liang,  C. Ochsenfeld,  V. A. Rassolov,  L. V. Slipchenko,  
 J. E. Subotnik,  T. Van Voorhis,  J. M. Herbert,  A. I. Krylov,  
 P. M. W. Gill,  M. Head-Gordon

 Contributors to earlier versions of Q-Chem not listed above: 
 R. D. Adamson,  B. Austin,  J. Baker,  G. J. O. Beran,  K. Brandhorst,  
 S. T. Brown,  E. F. C. Byrd,  A. K. Chakraborty,  C.-L. Cheng,  
 Siu Hung Chien,  D. M. Chipman,  D. L. Crittenden,  H. Dachsel,  
 R. J. Doerksen,  A. D. Dutoi,  L. Fusti-Molnar,  W. A. Goddard III,  
 A. Golubeva-Zadorozhnaya,  S. R. Gwaltney,  G. Hawkins,  A. Heyden,  
 S. Hirata,  G. Kedziora,  F. J. Keil,  C. Kelley,  Jihan Kim,  R. A. King,  
 R. Z. Khaliullin,  P. P. Korambath,  W. Kurlancheek,  A. M. Lee,  M. S. Lee,  
 S. V. Levchenko,  Ching Yeh Lin,  D. Liotard,  R. C. Lochan,  I. Lotan,  
 P. E. Maslen,  N. Nair,  D. P. O'Neill,  D. Neuhauser,  E. Neuscamman,  
 C. M. Oana,  R. Olson,  B. Peters,  R. Peverati,  P. A. Pieniazek,  
 Y. M. Rhee,  J. Ritchie,  M. A. Rohrdanz,  E. Rosta,  N. J. Russ,  
 H. F. Schaefer III,  N. E. Schultz,  N. Shenvi,  A. C. Simmonett,  A. Sodt,  
 D. Stuck,  K. S. Thanthiriwatte,  V. Vanovschi,  Tao Wang,  A. Warshel,  
 C. F. Williams,  Q. Wu,  X. Xu,  W. Zhang

 Please cite Q-Chem as follows:
 Y. Shao et al., Mol. Phys. 113, 184-215 (2015)
 DOI: 10.1080/00268976.2014.952696

 Q-Chem 5.2.0 for Mac (Intel) OS X

 Parts of Q-Chem use Armadillo 8.300.2 (Tropical Shenanigans).
 http://arma.sourceforge.net/

 Q-Chem begins on Wed May 29 06:38:32 2019  

Annas-MacBook-Pro-4.local
Host: 0

     Scratch files written to /scratch/qchem7805//
Processing $rem in /Users/annakrylov/.qchemrc:
	CC_MEMORY  8000
NAlpha2: 60
NElect   58
Mult     3
Core orbitals will be frozen

Checking the input file for inconsistencies... 	...done.

--------------------------------------------------------------
User input:
--------------------------------------------------------------

$molecule
0 3
N          0.00000        0.95064        0.03617
N          0.00000       -1.01646       -1.17678
C          0.00000        0.37240       -1.21738
C          0.00000       -1.73906       -0.01025
C          0.00000       -1.14569        1.19934
C          0.00000        0.31332        1.28805
O          0.00000        0.96679        2.30939
O          0.00000        0.99654       -2.25445
H          0.00000        1.96592        0.05068
H          0.00000       -1.47161       -2.07989
H          0.00000       -2.82299       -0.12835
H          0.00000       -1.71696        2.12384
$end

$rem
JOBTYPE SP
BASIS 6-31G*
SCF_GUESS read
mom_start = 1
METHOD EOM-CCSD
cvs_ip_states  [4,0]
cc_trans_prop  true
cc_do_dyson = true
!state_analysis true
!molden_format  true
!nto_pairs      3
!pop_mulliken   true
$end

$occupied
1:30
1:26 28 29 
$end
--------------------------------------------------------------
 ----------------------------------------------------------------
             Standard Nuclear Orientation (Angstroms)
    I     Atom           X                Y                Z
 ----------------------------------------------------------------
    1      N       0.0354846971    -0.9850555213    -0.0000000000
    2      N      -1.1754105895     0.9833099726    -0.0000000000
    3      C      -1.2174608195    -0.4055068756    -0.0000000000
    4      C      -0.0081266842     1.7046914842     0.0000000000
    5      C       1.2008430574     1.1100587500     0.0000000000
    6      C       1.2880295062    -0.3490430859     0.0000000000
    7      O       2.3086865939    -1.0035792161     0.0000000000
    8      O      -2.2551819831    -1.0285636235    -0.0000000000
    9      H       0.0489345305    -2.0003501192    -0.0000000000
   10      H      -2.0780448281     1.4394027548    -0.0000000000
   11      H      -0.1250947767     2.7887442137     0.0000000000
   12      H       2.1259390754     1.6803630727     0.0000000000
 ----------------------------------------------------------------
 Molecular Point Group                 Cs    NOp =  2
 Largest Abelian Subgroup              Cs    NOp =  2
 Nuclear Repulsion Energy =         356.75852787 hartrees
 There are       30 alpha and       28 beta electrons
 Requested basis set is 6-31G(d)
 There are 40 shells and 128 basis functions
 WARNING: the default MEM_TOTAL is adjusted according to given MEM_STATIC!
 Total memory of 8192 MB is distributed as follows: 
   MEM_STATIC is set to 192 MB
   QALLOC/CCMAN JOB total memory use is  8000 MB
 Warning: actual memory use might exceed 8192 MB

 Total QAlloc Memory Limit   8192 MB
 Mega-Array Size       188 MB
 MEM_STATIC part       192 MB

                       Distance Matrix (Angstroms)
             N (  1)   N (  2)   C (  3)   C (  4)   C (  5)   C (  6)
   N (  2)  2.311002
   C (  3)  1.380489  1.389453
   C (  4)  2.690101  1.372204  2.432165
   C (  5)  2.397408  2.379632  2.853968  1.347292
   C (  6)  1.404771  2.800661  2.506126  2.428548  1.461704
   O (  7)  2.273277  4.010818  3.576508  3.564036  2.386374  1.212501
   O (  8)  2.291080  2.283318  1.210399  3.538353  4.064211  3.607783
   H (  9)  1.015384  3.225097  2.036488  3.705481  3.316856  2.064503
   H ( 10)  3.216365  1.011321  2.035754  2.086849  3.295387  3.811692
   H ( 11)  3.777215  2.088721  3.375871  1.090345  2.139181  3.441312
   H ( 12)  3.387397  3.374136  3.940708  2.134204  1.086761  2.195582
             O (  7)   O (  8)   H (  9)   H ( 10)   H ( 11)
   O (  8)  4.563937
   H (  9)  2.469824  2.500664
   H ( 10)  5.021113  2.474315  4.044248
   H ( 11)  4.506108  4.371397  4.792255  2.373760
   H ( 12)  2.690157  5.150971  4.226298  4.210884  2.509116

 A cutoff of  1.0D-14 yielded    773 shell pairs
 There are      8286 function pairs
 Smallest overlap matrix eigenvalue = 1.23E-03

 Scale SEOQF with 1.000000e-01/1.000000e-01/1.000000e+00

 Standard Electronic Orientation quadrupole field applied
 Nucleus-field energy     =     0.0000000099 hartrees
 Guess MOs from SCF MO coefficient file
 Reading MOs from coefficient file
 User-specified occupied guess orbitals will be used
   Alpha:
   1   2   3   4   5   6   7   8   9  10  11  12  13  14  15
  16  17  18  19  20  21  22  23  24  25  26  27  28  29  30
 Reading MOs from coefficient file
   Beta:
   1   2   3   4   5   6   7   8   9  10  11  12  13  14  15
  16  17  18  19  20  21  22  23  24  25  26  28  29

 -----------------------------------------------------------------------
  General SCF calculation program by
  Eric Jon Sundstrom, Paul Horn, Yuezhi Mao, Dmitri Zuev, Alec White,
  David Stuck, Shaama M.S., Shane Yost, Joonho Lee, David Small,
  Daniel Levine, Susi Lehtola, Hugh Burton, Evgeny Epifanovsky
 -----------------------------------------------------------------------
 Hartree-Fock
 A unrestricted SCF calculation will be
 performed using DIIS
 SCF converges when DIIS error is below 1.0e-08
 ---------------------------------------
  Cycle       Energy         DIIS error
 ---------------------------------------
Maximum Overlap Method Active
 MOM overlap:    30.0 / 30
Maximum Overlap Method Active
 MOM overlap:    28.0 / 28
    1    -412.1659680325      3.00e-03  
Maximum Overlap Method Active
 MOM overlap:    30.00 / 30
Maximum Overlap Method Active
 MOM overlap:    27.99 / 28
    2    -412.2507771265      2.22e-03  
Maximum Overlap Method Active
 MOM overlap:    29.99 / 30
Maximum Overlap Method Active
 MOM overlap:    27.99 / 28
    3    -412.2990764229      7.20e-04  
Maximum Overlap Method Active
 MOM overlap:    30.00 / 30
Maximum Overlap Method Active
 MOM overlap:    28.00 / 28
    4    -412.3194358006      3.92e-04  
Maximum Overlap Method Active
 MOM overlap:    30.00 / 30
Maximum Overlap Method Active
 MOM overlap:    28.00 / 28
    5    -412.3250221979      2.76e-04  
Maximum Overlap Method Active
 MOM overlap:    30.00 / 30
Maximum Overlap Method Active
 MOM overlap:    28.00 / 28
    6    -412.3287245690      1.70e-04  
Maximum Overlap Method Active
 MOM overlap:    30.00 / 30
Maximum Overlap Method Active
 MOM overlap:    28.00 / 28
    7    -412.3307547568      9.68e-05  
Maximum Overlap Method Active
 MOM overlap:    30.00 / 30
Maximum Overlap Method Active
 MOM overlap:    28.00 / 28
    8    -412.3313456220      4.99e-05  
Maximum Overlap Method Active
 MOM overlap:    30.00 / 30
Maximum Overlap Method Active
 MOM overlap:    28.00 / 28
    9    -412.3314615157      1.92e-05  
Maximum Overlap Method Active
 MOM overlap:    30.00 / 30
Maximum Overlap Method Active
 MOM overlap:    28.00 / 28
   10    -412.3314770603      1.01e-05  
Maximum Overlap Method Active
 MOM overlap:    30.00 / 30
Maximum Overlap Method Active
 MOM overlap:    28.00 / 28
   11    -412.3314812876      6.11e-06  
Maximum Overlap Method Active
 MOM overlap:    30.00 / 30
Maximum Overlap Method Active
 MOM overlap:    28.00 / 28
   12    -412.3314833632      3.04e-06  
Maximum Overlap Method Active
 MOM overlap:    30.00 / 30
Maximum Overlap Method Active
 MOM overlap:    28.00 / 28
   13    -412.3314839178      1.58e-06  
Maximum Overlap Method Active
 MOM overlap:    30.00 / 30
Maximum Overlap Method Active
 MOM overlap:    28.00 / 28
   14    -412.3314840470      9.48e-07  
Maximum Overlap Method Active
 MOM overlap:    30.00 / 30
Maximum Overlap Method Active
 MOM overlap:    28.00 / 28
   15    -412.3314840981      5.22e-07  
Maximum Overlap Method Active
 MOM overlap:    30.00 / 30
Maximum Overlap Method Active
 MOM overlap:    28.00 / 28
   16    -412.3314841156      2.71e-07  
Maximum Overlap Method Active
 MOM overlap:    30.00 / 30
Maximum Overlap Method Active
 MOM overlap:    28.00 / 28
   17    -412.3314841204      1.41e-07  
Maximum Overlap Method Active
 MOM overlap:    30.00 / 30
Maximum Overlap Method Active
 MOM overlap:    28.00 / 28
   18    -412.3314841217      6.52e-08  
Maximum Overlap Method Active
 MOM overlap:    30.00 / 30
Maximum Overlap Method Active
 MOM overlap:    28.00 / 28
   19    -412.3314841219      2.95e-08  
Maximum Overlap Method Active
 MOM overlap:    30.00 / 30
Maximum Overlap Method Active
 MOM overlap:    28.00 / 28
   20    -412.3314841219      1.44e-08  
   21    -412.3314841219      6.42e-09  Convergence criterion met
Maximum Overlap Method Active
 MOM overlap:    30.00 / 30
Maximum Overlap Method Active
 MOM overlap:    28.00 / 28
Maximum Overlap Method Active
 MOM overlap:    30.00 / 30
Maximum Overlap Method Active
 MOM overlap:    28.00 / 28
 ---------------------------------------
 SCF time:   CPU 12.79s  wall 13.00s 
<S^2> =          2.180861249
 SCF   energy in the final basis set =     -412.3314841219
 Total energy in the final basis set =     -412.3314841219


 ------------------------------------------------------------------------------

   CCMAN2: suite of methods based on coupled cluster
           and equation of motion theories.

   Components:
   * libvmm-1.3-trunk
     by Evgeny Epifanovsky, Ilya Kaliman.
   * libtensor-2.5-trunk
     by Evgeny Epifanovsky, Michael Wormit, Dmitry Zuev, Sam Manzer, 
        Ilya Kaliman.
   * libcc-2.5-trunk
     by Evgeny Epifanovsky, Arik Landau, Tomasz Kus, Kirill Khistyaev, 
        Dmitry Zuev, Prashant Manohar, Xintian Feng, Anna Krylov, 
        Matthew Goldey, Alec White, Thomas Jagau, Kaushik Nanda, 
        Anastasia Gunina, Alexander Kunitsa, Joonho Lee.

   CCMAN original authors:
   Anna I. Krylov, C. David Sherrill, Steven R. Gwaltney,
   Edward F. C. Byrd (2000)
   Sergey V. Levchenko, Lyudmila V. Slipchenko, Tao Wang,
   Ana-Maria C. Cristian (2003)
   Piotr A. Pieniazek, C. Melania Oana, Evgeny Epifanovsky (2007)
   Prashant Manohar (2009)

 ------------------------------------------------------------------------------


 Allocating and initializing 8000MB of RAM...
 Calculation will run on 1 core.


 Alpha MOs, Unrestricted
 -- Occupied --                  
-20.699 -20.533 -15.621 -15.606 -11.402 -11.335 -11.276 -11.245
  1 A'    2 A'    3 A'    4 A'    5 A'    6 A'    7 A'    8 A'                 
 -1.554  -1.412  -1.289  -1.233  -1.062  -0.927  -0.900  -0.797
  9 A'   10 A'   11 A'   12 A'   13 A'   14 A'   15 A'   16 A'                 
 -0.773  -0.750  -0.730  -0.684  -0.665  -0.636  -0.633  -0.601
 17 A'   18 A'    1 A"   19 A'   20 A'    2 A"   21 A'   22 A'                 
 -0.539  -0.522  -0.487  -0.453  -0.370  -0.234
 23 A'    3 A"    4 A"   24 A'    5 A"    6 A"                                 
 -- Virtual --                   
  0.180   0.211   0.248   0.276   0.293   0.307   0.375   0.394
  7 A"   25 A'   26 A'   27 A'    8 A"   28 A'   29 A'   30 A'                 
  0.416   0.463   0.505   0.544   0.565   0.674   0.698   0.729
 31 A'   32 A'   33 A'   34 A'   35 A'   36 A'    9 A"   37 A'                 
  0.758   0.784   0.792   0.804   0.809   0.879   0.886   0.909
 38 A'   10 A"   39 A'   11 A"   40 A'   41 A'   42 A'   12 A"                 
  0.944   0.958   0.996   1.033   1.085   1.094   1.098   1.113
 43 A'   44 A'   13 A"   45 A'   46 A'   47 A'   14 A"   48 A'                 
  1.126   1.144   1.181   1.197   1.197   1.237   1.328   1.331
 49 A'   50 A'   51 A'   52 A'   15 A"   53 A'   54 A'   16 A"                 
  1.357   1.367   1.439   1.470   1.549   1.595   1.602   1.639
 55 A'   56 A'   17 A"   57 A'   58 A'   18 A"   59 A'   19 A"                 
  1.678   1.688   1.717   1.729   1.738   1.835   1.866   1.964
 60 A'   20 A"   61 A'   21 A"   22 A"   62 A'   63 A'   23 A"                 
  1.988   2.017   2.052   2.099   2.101   2.143   2.200   2.257
 64 A'   65 A'   66 A'   67 A'   24 A"   68 A'   69 A'   25 A"                 
  2.271   2.304   2.322   2.385   2.458   2.497   2.500   2.542
 70 A'   26 A"   71 A'   72 A'   73 A'   74 A'   27 A"   75 A'                 
  2.592   2.603   2.647   2.732   2.899   2.902   2.962   2.970
 28 A"   76 A'   29 A"   77 A'   78 A'   30 A"   79 A'   80 A'                 
  2.992   3.010   3.097   3.141   3.192   3.276   3.342   3.355
 31 A"   32 A"   81 A'   82 A'   83 A'   84 A'   85 A'   86 A'                 
  3.589   3.788   4.331   4.356   4.424   4.550   4.610   4.791
 87 A'   88 A'   89 A'   90 A'   91 A'   92 A'   93 A'   94 A'                 
  5.010   5.060
 95 A'   96 A'                                                                 

 Beta MOs, Unrestricted
 -- Occupied --                  
-20.654 -20.532 -15.616 -15.603 -11.402 -11.319 -11.259 -11.256
  1 A'    2 A'    3 A'    4 A'    5 A'    6 A'    7 A'    8 A'                 
 -1.421  -1.401  -1.272  -1.210  -1.049  -0.885  -0.863  -0.776
  9 A'   10 A'   11 A'   12 A'   13 A'   14 A'   15 A'   16 A'                 
 -0.725  -0.706  -0.672  -0.642  -0.630  -0.597  -0.592  -0.555
 17 A'   18 A'   19 A'    1 A"   20 A'   21 A'    2 A"   22 A'                 
 -0.472  -0.450  -0.439  -0.364
  3 A"   23 A'    4 A"    5 A"                                                 
 -- Virtual --                   
  0.036   0.173   0.201   0.215   0.253   0.277   0.315   0.353
 24 A'    6 A"    7 A"   25 A'   26 A'   27 A'   28 A'    8 A"                 
  0.404   0.413   0.434   0.469   0.528   0.558   0.583   0.697
 29 A'   30 A'   31 A'   32 A'   33 A'   34 A'   35 A'   36 A'                 
  0.727   0.745   0.775   0.799   0.802   0.818   0.854   0.893
  9 A"   37 A'   38 A'   39 A'   10 A"   40 A'   11 A"   41 A'                 
  0.907   0.912   0.957   0.974   1.016   1.040   1.089   1.104
 12 A"   42 A'   43 A'   44 A'   13 A"   45 A'   46 A'   47 A'                 
  1.117   1.118   1.131   1.160   1.184   1.241   1.246   1.277
 14 A"   48 A'   49 A'   50 A'   51 A'   52 A'   15 A"   53 A'                 
  1.336   1.336   1.374   1.392   1.465   1.482   1.560   1.611
 54 A'   16 A"   55 A'   56 A'   17 A"   57 A'   58 A'   59 A'                 
  1.617   1.658   1.689   1.722   1.724   1.745   1.755   1.843
 18 A"   19 A"   60 A'   20 A"   61 A'   21 A"   22 A"   62 A'                 
  1.887   2.015   2.046   2.055   2.084   2.104   2.117   2.155
 63 A'   64 A'   23 A"   65 A'   66 A'   24 A"   67 A'   68 A'                 
  2.225   2.269   2.283   2.311   2.333   2.408   2.470   2.521
 69 A'   25 A"   70 A'   26 A"   71 A'   72 A'   73 A'   27 A"                 
  2.525   2.546   2.613   2.627   2.665   2.737   2.900   2.931
 74 A'   75 A'   28 A"   76 A'   29 A"   77 A'   78 A'   30 A"                 
  2.978   2.989   3.009   3.018   3.106   3.150   3.197   3.299
 79 A'   80 A'   31 A"   32 A"   81 A'   82 A'   83 A'   84 A'                 
  3.353   3.362   3.597   3.792   4.350   4.364   4.431   4.560
 85 A'   86 A'   87 A'   88 A'   89 A'   90 A'   91 A'   92 A'                 
  4.611   4.807   5.011   5.075
 93 A'   94 A'   95 A'   96 A'                                                 

 Occupation and symmetry of molecular orbitals

 Point group: Cs (2 irreducible representations).

                           A'   A"    All 
 ------------------------------------------
 All molecular orbitals:
  - Alpha                  96   32    128 
  - Beta                   96   32    128 
 ------------------------------------------
 Alpha orbitals:
  - Frozen occupied        8    0     8   
  - Active occupied        16   6     22  
  - Active virtual         72   26    98  
  - Frozen virtual         0    0     0   
 ------------------------------------------
 Beta orbitals:
  - Frozen occupied        8    0     8   
  - Active occupied        15   5     20  
  - Active virtual         73   27    100 
  - Frozen virtual         0    0     0   
 ------------------------------------------

 Import integrals:   CPU 0.00 s  wall 0.00 s

 Import integrals:   CPU 15.99 s  wall 12.23 s

 MP2 amplitudes:   CPU 0.18 s  wall 0.19 s

Running a double precision version
           CCSD T amplitudes will be solved using DIIS.

           Start     Size      MaxIter   EConv     TConv     
           3         7         100       1.00e-06  1.00e-04  
 ------------------------------------------------------------------------------
           Energy (a.u.)   Ediff      Tdiff       Comment
 ------------------------------------------------------------------------------
          -413.42544635                           
     1    -413.43484623   9.40e-03   9.42e-01     
     2    -413.46846617   3.36e-02   1.16e-01     
     3    -413.47064093   2.17e-03   4.34e-02     
     4    -413.47545405   4.81e-03   1.69e-02     Switched to DIIS steps.
     5    -413.47914813   3.69e-03   1.79e-02     
     6    -413.48003566   8.88e-04   6.95e-03     
     7    -413.48044980   4.14e-04   5.24e-03     
     8    -413.48053129   8.15e-05   1.42e-03     
     9    -413.48058268   5.14e-05   9.17e-04     
    10    -413.48059260   9.92e-06   4.06e-04     
    11    -413.48059672   4.12e-06   2.51e-04     
    12    -413.48060156   4.84e-06   1.65e-04     
    13    -413.48060130   2.64e-07   7.47e-05     
 ------------------------------------------------------------------------------
          -413.48060130                           CCSD T converged.

End of double precision
 SCF energy                 = -412.33148412
 MP2 energy                 = -413.42544635
 CCSD correlation energy    =   -1.14911718
 CCSD total energy          = -413.48060130

 CCSD  T1^2 = 0.0611  T2^2 = 0.3879  Leading amplitudes:

 Amplitude    Orbitals with energies
 -0.0946       22 (A') B                 ->    24 (A') B                  
              -0.5549                          0.0361                     
 -0.0822       5 (A") A                  ->    7 (A") A                   
              -0.3700                          0.1801                     
  0.0673       5 (A") A                  ->    8 (A") A                   
              -0.3700                          0.2926                     
 -0.0661       3 (A") B                  ->    6 (A") B                   
              -0.4717                          0.1725                     

 Amplitude    Orbitals with energies
  0.0439       6 (A") A      5 (A") B    ->    8 (A") A      6 (A") B     
              -0.2343       -0.3639            0.2926        0.1725       
 -0.0439       6 (A") A      5 (A") B    ->    6 (A") B      8 (A") A     
              -0.2343       -0.3639            0.1725        0.2926       
 -0.0439       5 (A") B      6 (A") A    ->    8 (A") A      6 (A") B     
              -0.3639       -0.2343            0.2926        0.1725       
  0.0439       5 (A") B      6 (A") A    ->    6 (A") B      8 (A") A     
              -0.3639       -0.2343            0.1725        0.2926       

 Computing CCSD intermediates for later calculations in double precision
 Finished.

Running a double precision version
           CCSD Lambda amplitudes will be solved using DIIS.
           Start     Size      MaxIter   EConv     LConv     
           3         7         100       1.00e-06  1.00e-04  
 ------------------------------------------------------------------------------
            Enorm      Ldiff       Comment
 ------------------------------------------------------------------------------
     1     6.50e-02   3.92e-02     
     2     2.11e-02   6.24e-03     
     3     9.74e-03   8.28e-04     
     4     4.66e-03   1.03e-03     Switched to DIIS steps.
     5     1.85e-03   6.51e-04     
     6     1.01e-03   1.92e-04     
     7     5.52e-04   7.77e-05     
     8     3.34e-04   3.64e-05     
     9     1.64e-04   1.55e-05     
    10     8.85e-05   6.64e-06     
    11     5.08e-05   4.18e-06     
    12     2.48e-05   2.23e-06     
    13     1.39e-05   1.00e-06     
    14     7.34e-06   3.62e-08     
    15     4.15e-06   1.18e-07     
    16     2.52e-06   1.68e-07     
    17     1.56e-06   1.93e-07     
    18     9.54e-07   1.40e-07     
 ------------------------------------------------------------------------------
                                   CCSD Lambda converged.

 CCSD calculation:   CPU 213.79 s  wall 114.29 s

        Solving for CVS-EOMIP-CCSD A' transitions.

Running a double precision version
      CVS-EOMIP-CCSD/MP2 right amplitudes will be solved using Davidson.
        Amplitudes will be solved using standard  algorithm.
     Hard-coded thresholds: 
     LinDepThresh=1.00e-15  NormThresh=1.00e-06  ReorthogonThresh=1.00e-02

      Roots     MaxVec    MaxIter   Precond   Conv      Shift    
      4         120       60        1         1.00e-05  0.00e+00  
 ------------------------------------------------------------------------------
      Iter ConvRoots NVecs ResNorm Current eigenvalues (eV)
 ------------------------------------------------------------------------------
      0    0      4     5.74e-01   305.5465   306.2705   308.0522   309.4972   
      1    0      8     4.66e-01   301.1189   301.8976   303.6027   305.0665   
      2    0      12    8.66e-03   292.9807   293.9454   295.8326   297.5075   
      3    0      16    7.07e-04   292.8144   293.7335   295.6334   297.3495   
      4    0      20    1.01e-04   292.8124   293.7037   295.6067   297.3349   
      5    1      24    1.94e-05   292.8106*  293.6975   295.6018   297.3321   
      6    4      27    3.82e-06   292.8106*  293.6974*  295.6017*  297.3323*  

     Davidson procedure converged

 EOMIP transition 1/A'
 Total energy = -402.72001045 a.u.  Excitation energy = 292.8106 eV.
 R1^2 = 0.8935  R2_CCVV^2 = 0.0013  R2_COVV^2 = 0.1059  Res^2 = 4.66e-06
 Conv-d = yes

 Amplitude    Transitions between orbitals
  0.9452       8 (A') A                  ->    infty        
  0.0018       7 (A') A                  ->    infty        
 -0.0006       6 (A') A                  ->    infty        

              Summary of significant orbitals:

               Number  Type             Irrep      Energy
               6       Occ  Alpha       6 (A')    -11.3351
               7       Occ  Alpha       7 (A')    -11.2762
               8       Occ  Alpha       8 (A')    -11.2451


 EOMIP transition 2/A'
 Total energy = -402.68742006 a.u.  Excitation energy = 293.6974 eV.
 R1^2 = 0.8892  R2_CCVV^2 = 0.0013  R2_COVV^2 = 0.1101  Res^2 = 4.34e-06
 Conv-d = yes

 Amplitude    Transitions between orbitals
  0.9430       7 (A') A                  ->    infty        
 -0.0010       8 (A') A                  ->    infty        
 -0.0001       6 (A') A                  ->    infty        

              Summary of significant orbitals:

               Number  Type             Irrep      Energy
               6       Occ  Alpha       6 (A')    -11.3351
               7       Occ  Alpha       7 (A')    -11.2762
               8       Occ  Alpha       8 (A')    -11.2451


 EOMIP transition 3/A'
 Total energy = -402.61743808 a.u.  Excitation energy = 295.6017 eV.
 R1^2 = 0.8926  R2_CCVV^2 = 0.0013  R2_COVV^2 = 0.1068  Res^2 = 4.95e-06
 Conv-d = yes

 Amplitude    Transitions between orbitals
  0.9448       6 (A') A                  ->    infty        
  0.0002       8 (A') A                  ->    infty        
  0.0001       7 (A') A                  ->    infty        

              Summary of significant orbitals:

               Number  Type             Irrep      Energy
               6       Occ  Alpha       6 (A')    -11.3351
               7       Occ  Alpha       7 (A')    -11.2762
               8       Occ  Alpha       8 (A')    -11.2451


 EOMIP transition 4/A'
 Total energy = -402.55383867 a.u.  Excitation energy = 297.3323 eV.
 R1^2 = 0.8973  R2_CCVV^2 = 0.0013  R2_COVV^2 = 0.1021  Res^2 = 1.33e-06
 Conv-d = yes

 Amplitude    Transitions between orbitals
 -0.9472       5 (A') A                  ->    infty        

              Summary of significant orbitals:

               Number  Type             Irrep      Energy
               5       Occ  Alpha       5 (A')    -11.4016


Running a double precision version
      CVS-EOMIP-CCSD/MP2 left amplitudes will be solved using Davidson.
        Amplitudes will be solved using MOM  algorithm.
     Hard-coded thresholds: 
     LinDepThresh=1.00e-15  NormThresh=1.00e-06  ReorthogonThresh=1.00e-02

      Roots     MaxVec    MaxIter   Precond   Conv      Shift    
      4         120       60        1         1.00e-05  0.00e+00  
 ------------------------------------------------------------------------------
      Iter ConvRoots NVecs ResNorm Current eigenvalues (eV)
 ------------------------------------------------------------------------------
      0    0      4     1.37e-02   293.6626   294.4936   296.3717   298.0185   
      1    0      8     2.60e-03   292.8001   293.7092   295.6150   297.3424   
      2    0      12    1.78e-04   292.8163   293.7056   295.6085   297.3377   
      3    1      16    1.74e-05   292.8105   293.7001   295.6035   297.3311*  
      4    4      19    4.24e-06   292.8102*  293.6974*  295.6016*  297.3311*  

     Davidson procedure converged

 CVS-EOMIP-CCSD calculation:   CPU 6.18 s  wall 5.59 s


 Reference -- EOM-IP-CCSD state  1/A'   transition
 Energy difference = 292.8106 eV.

 Left Dyson orbital norm is 0.926078

Left alpha Dyson orbital in the MO basis (canonical Q-Chem's ordering):
0     9.1327e-07
1     -7.9769e-08
2     -2.0976e-06
3     2.3733e-06
4     2.3976e-05
5     -2.5224e-04
6     1.0006e-03
7     1.0000e+00
8     -1.7347e-16
9     -1.2783e-16
10    1.7499e-16
11    5.1153e-16
12    -1.6046e-16
13    -3.4591e-16
14    6.7958e-16
15    1.5794e-16
16    -5.6899e-16
17    -1.5894e-16
18    -2.3415e-16
19    -6.9823e-17
20    -1.7304e-16
21    -5.6344e-17
22    5.9523e-16
23    6.5659e-16
24    7.0652e-16
25    -3.4626e-17
26    1.0915e-16
27    -1.8339e-16
28    2.3204e-16
29    2.1863e-16
30    -3.2949e-16
31    2.0860e-16
32    -4.0593e-16
33    7.7412e-16
34    -2.0581e-16
35    1.5205e-15
36    -1.4919e-16
37    -6.8879e-16
38    7.0647e-16
39    1.3434e-15
40    -1.1048e-16
41    -1.4116e-16
42    -1.3878e-17
43    -4.4799e-16
44    -3.7772e-16
45    8.3017e-16
46    -2.4270e-16
47    2.3256e-16
48    1.3587e-15
49    -5.2325e-16
50    3.0314e-16
51    4.1101e-16
52    -4.2110e-16
53    1.1289e-16
54    4.5927e-16
55    -1.5287e-16
56    4.7710e-16
57    4.7531e-16
58    -1.5595e-15
59    -9.0677e-16
60    -4.8424e-16
61    -7.9797e-17
62    2.1207e-16
63    -1.3162e-16
64    -3.3670e-16
65    2.1077e-16
66    -1.7759e-16
67    -1.1276e-15
68    -1.3878e-17
69    3.7028e-16
70    3.5865e-16
71    6.5573e-16
72    8.6584e-16
73    -2.5219e-16
74    2.3496e-16
75    2.2893e-16
76    -8.4964e-16
77    7.5448e-17
78    1.2343e-15
79    -6.5555e-18
80    -2.4449e-16
81    -2.4402e-16
82    -3.8096e-16
83    -2.7148e-16
84    -4.5013e-16
85    7.6101e-17
86    1.0086e-15
87    -4.8117e-16
88    6.9281e-17
89    2.8989e-16
90    -1.7918e-16
91    -7.1557e-17
92    6.1713e-16
93    1.1321e-16
94    -2.2519e-16
95    5.7497e-16
96    -3.4478e-16
97    4.5775e-16
98    -2.5305e-16
99    5.3603e-16
100   3.7433e-17
101   1.2701e-16
102   2.8906e-16
103   5.1478e-16
104   -1.0766e-16
105   5.2896e-16
106   -5.6460e-16
107   -1.7101e-16
108   -1.4171e-16
109   -3.6649e-16
110   -4.4443e-16
111   7.8936e-16
112   4.8887e-16
113   3.0629e-16
114   -2.4785e-16
115   2.0104e-16
116   4.7651e-17
117   8.7932e-16
118   -6.4819e-16
119   -1.3460e-16
120   5.9333e-16
121   2.2836e-17
122   9.4635e-16
123   -1.1074e-15
124   -2.0903e-15
125   -1.0145e-15
126   -4.0674e-16
127   -6.1098e-16

Decomposition over AOs for the left alpha Dyson orbital:
-5.71949104e-05
-7.90904368e-05
7.24321012e-06
-2.06820669e-05
-6.73406910e-16
2.08008260e-03
1.01782530e-04
8.07115664e-04
9.89773618e-16
-1.54942136e-04
-2.94431310e-05
-1.86984654e-04
9.92087051e-17
1.34456771e-16
-5.62566728e-05
-7.92501732e-05
-1.54705261e-04
-4.32449772e-05
6.89733927e-06
1.00629854e-16
2.69871510e-03
1.10670429e-03
-2.70022779e-04
3.72504328e-16
-2.60970191e-04
-4.40636571e-06
-1.50287059e-04
1.91602466e-16
-7.57802511e-17
-1.01208359e-04
-3.96609969e-05
5.52593042e-05
-1.07525681e-05
-2.86224204e-05
-8.98826091e-16
-7.87356841e-04
-1.26954976e-03
-7.49344833e-04
1.05902632e-16
1.07748372e-05
-1.08297866e-05
5.83434717e-06
6.23712569e-16
-3.27210904e-16
3.15067075e-05
2.49227433e-02
1.05571560e-03
2.10920137e-04
-1.39770772e-04
-2.54483663e-16
-6.76344257e-03
-1.29317767e-03
2.69461129e-03
-2.37699245e-17
3.33294544e-04
-2.91756469e-05
1.97996334e-04
-4.07188739e-16
8.33142843e-17
4.30074869e-05
-9.95560960e-01
-2.67110816e-02
3.08441255e-04
4.14291982e-04
-1.78141204e-16
1.53674244e-02
-2.68345795e-03
-1.98234885e-03
8.63511215e-17
1.14844612e-03
1.71212772e-04
1.23597598e-03
2.84356124e-16
3.21226551e-16
2.32379968e-03
5.36472874e-03
1.62479765e-04
4.35564902e-05
1.42797485e-04
4.02870080e-16
-5.81195219e-03
1.16850325e-03
-2.31033827e-03
-7.40496023e-16
2.80459601e-04
-7.34194603e-06
7.31250971e-04
2.22074624e-17
8.31900570e-16
1.13722483e-04
-4.08704616e-06
7.25635179e-05
3.00228225e-05
6.98608414e-06
3.21095965e-16
-1.90139487e-04
6.89255705e-05
1.40500225e-04
2.85185420e-16
-7.99231563e-05
1.39422726e-05
-4.17617794e-05
-2.13021899e-16
-5.78422231e-17
8.52419131e-05
4.05136340e-05
1.83080334e-04
1.35012617e-05
6.73766848e-06
3.09080415e-16
-1.20657761e-03
-2.23314422e-04
-1.32019699e-04
-4.46015883e-17
1.05405833e-04
-7.13199521e-06
1.10214447e-04
4.80174467e-16
1.55738059e-16
1.13402553e-04
5.51164913e-05
-4.17149687e-05
7.40885187e-05
2.38310263e-05
-2.07670003e-05
-4.14756960e-04
2.50134495e-04
-1.17408495e-03
   *****

 Right Dyson orbital norm is 0.950656

Right alpha Dyson orbital in the MO basis (canonical Q-Chem's ordering):
0     1.0515e-06
1     -9.7110e-08
2     -2.1867e-06
3     2.3450e-06
4     2.4788e-05
5     -5.8854e-04
6     2.1586e-03
7     1.0000e+00
8     -1.7130e-16
9     -1.2783e-16
10    1.7624e-16
11    5.1088e-16
12    -1.5613e-16
13    -3.4629e-16
14    6.7871e-16
15    1.5778e-16
16    -5.7072e-16
17    -1.5894e-16
18    -2.3431e-16
19    -6.8847e-17
20    -1.7044e-16
21    -5.6078e-17
22    5.9376e-16
23    6.5616e-16
24    7.0663e-16
25    -3.4296e-17
26    1.0872e-16
27    -1.8372e-16
28    2.3183e-16
29    2.1829e-16
30    -3.2862e-16
31    2.0882e-16
32    -4.0603e-16
33    7.7195e-16
34    -2.0558e-16
35    1.5214e-15
36    -1.4919e-16
37    -6.8706e-16
38    7.0668e-16
39    1.3432e-15
40    -1.0994e-16
41    -1.4203e-16
42    -1.3878e-17
43    -4.4539e-16
44    -3.7666e-16
45    8.3050e-16
46    -2.4237e-16
47    2.3252e-16
48    1.3589e-15
49    -5.2228e-16
50    3.0271e-16
51    4.1118e-16
52    -4.2197e-16
53    1.1280e-16
54    4.5753e-16
55    -1.5526e-16
56    4.7583e-16
57    4.7705e-16
58    -1.5582e-15
59    -9.0477e-16
60    -4.8295e-16
61    -7.8279e-17
62    2.1294e-16
63    -1.2902e-16
64    -3.3664e-16
65    2.1077e-16
66    -1.7757e-16
67    -1.1277e-15
68    -1.2577e-17
69    3.6820e-16
70    3.5865e-16
71    6.5291e-16
72    8.6519e-16
73    -2.5219e-16
74    2.3354e-16
75    2.2884e-16
76    -8.5064e-16
77    7.5473e-17
78    1.2321e-15
79    -6.4071e-18
80    -2.4384e-16
81    -2.4357e-16
82    -3.8082e-16
83    -2.7105e-16
84    -4.4959e-16
85    7.6401e-17
86    1.0069e-15
87    -4.8095e-16
88    6.9281e-17
89    2.8973e-16
90    -1.7886e-16
91    -7.2208e-17
92    6.1648e-16
93    1.1213e-16
94    -2.2432e-16
95    5.7352e-16
96    -3.4510e-16
97    4.5818e-16
98    -2.5305e-16
99    5.3554e-16
100   3.6922e-17
101   1.2680e-16
102   2.8828e-16
103   5.1586e-16
104   -1.0735e-16
105   5.2741e-16
106   -5.6376e-16
107   -1.6993e-16
108   -1.4257e-16
109   -3.6811e-16
110   -4.4320e-16
111   7.8689e-16
112   4.8963e-16
113   3.0691e-16
114   -2.4741e-16
115   2.0129e-16
116   4.8057e-17
117   8.7858e-16
118   -6.4811e-16
119   -1.3338e-16
120   5.9257e-16
121   2.1101e-17
122   9.4542e-16
123   -1.1069e-15
124   -2.0893e-15
125   -1.0141e-15
126   -4.0677e-16
127   -6.1024e-16

Decomposition over AOs for the right alpha Dyson orbital:
-5.72865994e-05
-7.87294489e-05
7.30394592e-06
-2.06656812e-05
-6.71393190e-16
2.07679388e-03
1.02280119e-04
8.05810010e-04
9.88187282e-16
-1.55020514e-04
-2.94412001e-05
-1.86902488e-04
9.87361695e-17
1.34598032e-16
-5.61303581e-05
-7.94846693e-05
-1.54209057e-04
-4.31075128e-05
6.98259467e-06
1.00451133e-16
2.69752762e-03
1.10382062e-03
-2.70465297e-04
3.71765022e-16
-2.61532629e-04
-4.80325038e-06
-1.50650686e-04
1.91070813e-16
-7.51505524e-17
-1.01087159e-04
-4.03864720e-05
5.46090355e-05
-1.07954808e-05
-2.86347526e-05
-8.96546939e-16
-7.86467244e-04
-1.26407132e-03
-7.47779951e-04
1.05068734e-16
1.07712601e-05
-1.08033811e-05
5.92411074e-06
6.22254599e-16
-3.26413852e-16
3.12870107e-05
2.60748278e-02
1.08999681e-03
2.10057580e-04
-1.40648302e-04
-2.54199378e-16
-6.77392645e-03
-1.29538325e-03
2.69481009e-03
-2.35664915e-17
3.30717966e-04
-2.90990776e-05
1.94974323e-04
-4.06813448e-16
8.30769125e-17
4.01516590e-05
-9.95530402e-01
-2.67105497e-02
3.08618603e-04
4.14191304e-04
-1.77604766e-16
1.53727751e-02
-2.68535002e-03
-1.98137803e-03
8.67392257e-17
1.14809007e-03
1.71225965e-04
1.23547783e-03
2.84313863e-16
3.19518092e-16
2.32357337e-03
5.69954859e-03
1.72504704e-04
4.37437198e-05
1.42269686e-04
4.02727153e-16
-5.81299777e-03
1.16923265e-03
-2.31101671e-03
-7.40022759e-16
2.79848109e-04
-7.63547458e-06
7.30527440e-04
2.26599841e-17
8.29848267e-16
1.12833631e-04
-4.30801980e-06
7.28411241e-05
2.99711027e-05
7.00585013e-06
3.20612686e-16
-1.91673484e-04
6.98332406e-05
1.40135950e-04
2.85125121e-16
-8.00653675e-05
1.40775410e-05
-4.16453439e-05
-2.12272197e-16
-5.80304197e-17
8.53889956e-05
4.03636843e-05
1.82341893e-04
1.34741583e-05
6.72646957e-06
3.07209959e-16
-1.20143446e-03
-2.22491832e-04
-1.31260865e-04
-4.32078628e-17
1.04927008e-04
-7.08761089e-06
1.09764023e-04
4.78968226e-16
1.54971878e-16
1.12988033e-04
5.50404503e-05
-4.17793457e-05
7.37737665e-05
2.33532707e-05
-2.09287012e-05
-4.12747448e-04
2.50011941e-04
-1.17407803e-03
   *****

     End transition


 Reference -- EOM-IP-CCSD state  2/A'   transition
 Energy difference = 293.6974 eV.

 Left Dyson orbital norm is 0.924160

Left alpha Dyson orbital in the MO basis (canonical Q-Chem's ordering):
0     1.5508e-07
1     1.8765e-07
2     1.1069e-07
3     2.2320e-05
4     -3.6431e-05
5     -1.1370e-04
6     1.0000e+00
7     -1.8884e-03
8     9.0347e-16
9     5.1521e-16
10    2.4026e-16
11    -7.6328e-17
12    3.5388e-16
13    2.7409e-16
14    6.3231e-16
15    1.0105e-16
16    -2.5587e-16
17    2.5815e-16
18    -3.0146e-17
19    7.1102e-16
20    5.6032e-16
21    2.7684e-16
22    -1.0505e-15
23    -5.4340e-16
24    1.0278e-16
25    3.7038e-16
26    -3.2205e-16
27    -4.5547e-16
28    -1.3258e-16
29    -2.5813e-16
30    7.1755e-16
31    3.7383e-16
32    6.5919e-17
33    -2.7886e-16
34    2.1227e-16
35    -5.6379e-16
36    1.8414e-15
37    1.2969e-15
38    3.0878e-16
39    -2.1034e-16
40    -2.3039e-18
41    -1.2695e-15
42    1.1714e-15
43    2.0058e-17
44    8.1183e-16
45    5.1174e-16
46    -1.9949e-16
47    -5.0555e-17
48    5.4622e-16
49    7.5983e-16
50    -5.6595e-16
51    2.5503e-16
52    -4.1763e-16
53    -3.2180e-17
54    -9.3437e-16
55    -4.9761e-16
56    -1.1105e-15
57    5.7007e-16
58    -6.9809e-17
59    1.4437e-15
60    1.1715e-15
61    -3.2179e-16
62    -9.7351e-16
63    9.2027e-16
64    -1.0365e-16
65    1.3054e-16
66    8.1663e-17
67    -1.8431e-16
68    8.1055e-16
69    -1.7163e-15
70    -1.2022e-15
71    -1.7208e-15
72    -3.8275e-16
73    -3.9390e-16
74    -1.2702e-15
75    -5.0394e-17
76    -5.8989e-16
77    5.5918e-17
78    -1.1519e-15
79    9.9210e-17
80    9.6212e-16
81    3.6554e-16
82    1.5595e-16
83    1.0884e-15
84    -5.2475e-17
85    3.2521e-16
86    -1.8386e-15
87    6.3502e-16
88    7.8401e-16
89    -2.8070e-16
90    2.3373e-16
91    -6.4082e-16
92    -8.9501e-16
93    -8.7755e-16
94    1.1226e-15
95    -1.1986e-15
96    -8.5652e-17
97    2.0361e-16
98    -2.3034e-16
99    -2.5609e-16
100   -4.4864e-16
101   1.0140e-16
102   -5.8358e-16
103   9.3084e-16
104   2.7958e-16
105   -1.0700e-15
106   9.7386e-16
107   8.6756e-16
108   -6.7150e-16
109   -1.3205e-15
110   1.0088e-15
111   -2.0316e-15
112   4.8832e-16
113   5.5896e-16
114   3.6063e-16
115   1.8890e-16
116   1.4279e-16
117   -4.4144e-16
118   2.5156e-16
119   1.1401e-15
120   -6.7530e-16
121   -1.5300e-15
122   -3.6386e-16
123   -1.0625e-17
124   4.7870e-16
125   2.5338e-16
126   3.0696e-17
127   9.3485e-16

Decomposition over AOs for the left alpha Dyson orbital:
6.65608620e-05
2.53817382e-04
-1.16831038e-05
9.02028940e-06
1.77505935e-15
-3.27506601e-03
1.10388457e-03
-1.21399919e-03
-1.50850168e-15
1.06270917e-04
6.29754117e-05
1.31114079e-04
-4.30348441e-16
1.19159044e-16
1.16736918e-04
-2.56259603e-04
3.96526009e-04
1.27416215e-04
7.38444716e-05
-1.23635251e-16
-5.92192491e-04
-2.50786976e-03
-7.30657175e-04
-7.14119703e-16
-5.02511079e-04
-3.61075753e-04
-3.16114062e-04
-4.12399207e-16
5.84341768e-16
9.50865196e-05
7.32625746e-05
-4.07354891e-04
3.31767537e-06
-2.17075201e-05
1.83880320e-15
9.32362760e-04
4.30549619e-03
4.15300255e-04
-4.36363226e-16
2.44789032e-05
3.85422514e-05
1.00213735e-04
-1.19920557e-15
6.22777568e-16
-1.34323301e-04
9.94920581e-01
2.96407063e-02
-7.15186483e-04
-7.73655568e-04
1.78262687e-16
-8.63433109e-03
-2.03719527e-03
3.19199000e-05
1.84866980e-16
-2.23256667e-03
7.97876665e-05
-2.63329978e-03
2.61811791e-16
-2.13997599e-16
-2.44872407e-03
2.52196457e-02
5.09939135e-04
1.24141786e-04
-8.41687163e-05
3.84963394e-16
2.81327997e-03
-1.14443291e-03
1.79233360e-03
2.29034847e-16
-2.37112583e-04
-6.36679108e-07
-3.49138877e-04
-4.91259138e-17
-1.43230324e-15
-1.39350389e-04
1.99016168e-04
-1.87103583e-04
-3.48030403e-05
-3.34279557e-05
-1.81542911e-16
8.66831994e-04
-6.04518405e-04
1.12223242e-03
5.63757326e-16
4.37415219e-05
-9.06274534e-05
1.10955940e-04
4.01607436e-16
-1.60436506e-15
-4.13133765e-05
-3.52897900e-05
-1.53042586e-04
2.18296764e-05
-1.70568484e-05
-4.45553699e-16
9.21574116e-04
-1.32135577e-04
8.82028253e-05
-1.70991466e-16
-1.34707717e-04
9.89450866e-06
-7.82092197e-05
6.26752408e-16
-2.12294371e-16
-8.90031405e-05
-1.13077564e-04
-4.98066254e-04
-2.20807823e-05
-1.13915184e-05
-1.53769094e-15
3.48443094e-03
4.59007514e-04
6.14759083e-04
1.12330168e-15
-3.49224802e-04
2.70022841e-05
-2.90483575e-04
-9.81911848e-16
-6.86338926e-16
-2.74770207e-04
-5.57185907e-05
-9.71196556e-05
-2.72733006e-04
-3.91888056e-04
-1.37585105e-04
1.69631099e-03
-1.14239174e-04
-2.21374897e-04
   *****

 Right Dyson orbital norm is 0.961030

Right alpha Dyson orbital in the MO basis (canonical Q-Chem's ordering):
0     1.7192e-07
1     1.5788e-07
2     1.6494e-08
3     1.9362e-05
4     -3.1127e-05
5     -1.1182e-04
6     1.0000e+00
7     -6.6799e-04
8     9.0238e-16
9     5.1651e-16
10    2.3852e-16
11    -7.4593e-17
12    3.5388e-16
13    2.7929e-16
14    6.3339e-16
15    1.0235e-16
16    -2.6194e-16
17    2.5771e-16
18    -3.0433e-17
19    7.1124e-16
20    5.6118e-16
21    2.7677e-16
22    -1.0498e-15
23    -5.4275e-16
24    1.0360e-16
25    3.7034e-16
26    -3.2192e-16
27    -4.5536e-16
28    -1.3229e-16
29    -2.5787e-16
30    7.1715e-16
31    3.7340e-16
32    6.5919e-17
33    -2.7712e-16
34    2.1202e-16
35    -5.6032e-16
36    1.8412e-15
37    1.2961e-15
38    3.0965e-16
39    -2.0730e-16
40    -2.5208e-18
41    -1.2697e-15
42    1.1705e-15
43    1.9461e-17
44    8.1137e-16
45    5.1521e-16
46    -1.9960e-16
47    -5.0272e-17
48    5.4861e-16
49    7.5919e-16
50    -5.6725e-16
51    2.5544e-16
52    -4.1894e-16
53    -3.2043e-17
54    -9.3426e-16
55    -4.9776e-16
56    -1.1099e-15
57    5.7094e-16
58    -7.1754e-17
59    1.4416e-15
60    1.1709e-15
61    -3.2439e-16
62    -9.7285e-16
63    9.2070e-16
64    -1.0365e-16
65    1.3444e-16
66    8.1446e-17
67    -1.8605e-16
68    8.1185e-16
69    -1.7159e-15
70    -1.2019e-15
71    -1.7191e-15
72    -3.8170e-16
73    -3.9441e-16
74    -1.2700e-15
75    -5.0116e-17
76    -5.9097e-16
77    5.6011e-17
78    -1.1499e-15
79    9.9201e-17
80    9.6169e-16
81    3.6525e-16
82    1.5549e-16
83    1.0876e-15
84    -5.2909e-17
85    3.2531e-16
86    -1.8375e-15
87    6.3464e-16
88    7.8410e-16
89    -2.8037e-16
90    2.3352e-16
91    -6.4082e-16
92    -8.9447e-16
93    -8.7741e-16
94    1.1224e-15
95    -1.1979e-15
96    -8.6086e-17
97    2.0513e-16
98    -2.3061e-16
99    -2.5609e-16
100   -4.4859e-16
101   1.0156e-16
102   -5.8323e-16
103   9.3138e-16
104   2.7945e-16
105   -1.0690e-15
106   9.7310e-16
107   8.6735e-16
108   -6.7166e-16
109   -1.3210e-15
110   1.0083e-15
111   -2.0307e-15
112   4.8891e-16
113   5.5937e-16
114   3.6047e-16
115   1.8908e-16
116   1.4317e-16
117   -4.4034e-16
118   2.5075e-16
119   1.1399e-15
120   -6.7454e-16
121   -1.5304e-15
122   -3.6288e-16
123   -1.2251e-17
124   4.7618e-16
125   2.5229e-16
126   3.0161e-17
127   9.3412e-16

Decomposition over AOs for the right alpha Dyson orbital:
6.64042712e-05
2.53716625e-04
-1.16742087e-05
8.99494962e-06
1.77424026e-15
-3.27253474e-03
1.10400503e-03
-1.21301304e-03
-1.50730049e-15
1.06087120e-04
6.29385344e-05
1.30888031e-04
-4.30228386e-16
1.19322441e-16
1.16668125e-04
-2.53409421e-04
3.96411378e-04
1.27364150e-04
7.38529826e-05
-1.23511409e-16
-5.88907627e-04
-2.50652142e-03
-7.30991954e-04
-7.13670360e-16
-5.02839662e-04
-3.61081069e-04
-3.16304776e-04
-4.12166026e-16
5.84249912e-16
9.49525030e-05
6.79614445e-05
-4.07422524e-04
3.30146830e-06
-2.17426041e-05
1.83770737e-15
9.31420510e-04
4.30396598e-03
4.14397079e-04
-4.36226049e-16
2.44949220e-05
3.85274630e-05
1.00225738e-04
-1.19844607e-15
6.22377920e-16
-1.34272517e-04
9.94951336e-01
2.96420085e-02
-7.14929950e-04
-7.73827718e-04
1.77951706e-16
-8.64259940e-03
-2.03878290e-03
3.52230773e-05
1.84838691e-16
-2.23216154e-03
7.97518887e-05
-2.63305977e-03
2.61314972e-16
-2.13896404e-16
-2.44867149e-03
2.40046400e-02
4.77339517e-04
1.24517664e-04
-8.36635087e-05
3.84746465e-16
2.83205135e-03
-1.14771799e-03
1.78991459e-03
2.29136522e-16
-2.35710140e-04
-4.27672983e-07
-3.47629712e-04
-4.87790638e-17
-1.43191079e-15
-1.36514227e-04
2.03386372e-04
-1.86968840e-04
-3.47521072e-05
-3.32505001e-05
-1.81051856e-16
8.59746546e-04
-6.03086229e-04
1.11940717e-03
5.62858201e-16
4.40885440e-05
-9.06354304e-05
1.11854475e-04
4.01634150e-16
-1.60335223e-15
-4.11678988e-05
-3.53095062e-05
-1.52954623e-04
2.18668826e-05
-1.70486097e-05
-4.45161911e-16
9.21338888e-04
-1.32054197e-04
8.83758941e-05
-1.70643388e-16
-1.34803795e-04
9.91091801e-06
-7.82595975e-05
6.26493463e-16
-2.12365255e-16
-8.88991873e-05
-1.12997393e-04
-4.97847086e-04
-2.20660436e-05
-1.13843166e-05
-1.53731560e-15
3.48298531e-03
4.58745009e-04
6.14603587e-04
1.12324297e-15
-3.49097969e-04
2.69936341e-05
-2.90351160e-04
-9.81326136e-16
-6.86149035e-16
-2.74634859e-04
-5.56509948e-05
-9.71709212e-05
-2.72641716e-04
-3.91858286e-04
-1.37611529e-04
1.69579890e-03
-1.13933747e-04
-2.22806079e-04
   *****

     End transition


 Reference -- EOM-IP-CCSD state  3/A'   transition
 Energy difference = 295.6017 eV.

 Left Dyson orbital norm is 0.927288

Left alpha Dyson orbital in the MO basis (canonical Q-Chem's ordering):
0     -1.1836e-05
1     -1.7147e-07
2     2.1789e-05
3     -4.9623e-09
4     4.6159e-05
5     1.0000e+00
6     1.0865e-04
7     5.5544e-04
8     -7.0430e-16
9     2.4720e-17
10    -5.5143e-16
11    -4.7445e-16
12    -4.5558e-16
13    4.5883e-16
14    2.3679e-16
15    -3.1382e-16
16    -5.0567e-16
17    -5.4102e-17
18    3.7578e-16
19    -1.4702e-16
20    5.6812e-17
21    1.6214e-16
22    4.3498e-16
23    -1.7304e-16
24    -4.9678e-16
25    2.9461e-16
26    1.5761e-16
27    -1.7477e-16
28    1.7886e-16
29    1.4139e-16
30    -9.4748e-17
31    9.7719e-16
32    2.4915e-16
33    2.4752e-16
34    3.6921e-17
35    9.2157e-18
36    -3.5909e-16
37    6.8955e-16
38    9.5106e-16
39    -9.7925e-16
40    -1.6588e-16
41    -3.0986e-16
42    7.1145e-16
43    2.1294e-16
44    -3.4680e-16
45    -5.3776e-17
46    -3.6321e-16
47    -6.1529e-17
48    -1.5092e-16
49    -2.6706e-16
50    -1.1872e-16
51    9.0097e-16
52    2.8840e-16
53    1.3830e-16
54    1.2525e-15
55    -5.3083e-16
56    -6.1254e-17
57    1.0467e-16
58    1.0148e-16
59    -1.6419e-15
60    2.0495e-16
61    -1.0235e-16
62    6.2960e-16
63    -2.9881e-16
64    -6.5211e-16
65    2.2400e-16
66    2.3634e-16
67    -3.8793e-16
68    2.9143e-16
69    2.8472e-16
70    -2.2828e-16
71    -2.5652e-16
72    6.2954e-16
73    -3.1507e-16
74    -2.3657e-16
75    9.6188e-17
76    1.4474e-17
77    1.1779e-16
78    -1.9212e-16
79    -1.0002e-16
80    5.0929e-16
81    -6.8350e-17
82    1.1102e-16
83    -4.7119e-16
84    -1.2811e-15
85    2.2888e-16
86    -1.2263e-15
87    5.6171e-16
88    5.6400e-16
89    3.0385e-16
90    -1.5874e-16
91    -1.3691e-16
92    -4.9104e-16
93    1.7969e-16
94    -1.9635e-16
95    1.7221e-16
96    2.2660e-16
97    -5.6617e-16
98    6.4640e-16
99    1.3390e-16
100   -2.3959e-17
101   9.5776e-16
102   3.1824e-16
103   9.5963e-16
104   4.1696e-17
105   9.2407e-16
106   3.2363e-16
107   -1.9859e-16
108   7.8282e-16
109   -3.8699e-17
110   -1.8997e-16
111   3.4083e-16
112   -2.9268e-16
113   1.1390e-16
114   5.6622e-16
115   -1.4420e-16
116   -2.2940e-16
117   6.1734e-16
118   4.3872e-16
119   6.8663e-16
120   -1.4246e-16
121   -2.1799e-16
122   8.6129e-16
123   -1.0280e-15
124   -8.5771e-16
125   -3.8801e-16
126   -1.6943e-16
127   8.6590e-16

Decomposition over AOs for the left alpha Dyson orbital:
2.60511899e-04
-2.06621684e-04
-2.20712272e-04
-1.77610841e-05
1.23073519e-16
-1.49628735e-03
2.31860515e-03
-2.94864866e-04
-4.77301232e-16
6.01655995e-04
2.10424147e-04
2.08494398e-04
-7.65736477e-17
-9.93648971e-18
2.68955348e-05
-2.42881442e-05
-1.07026068e-04
3.00482319e-05
9.72150741e-07
1.06466636e-16
1.49549868e-03
-5.90623497e-05
-1.20336316e-03
-2.61672682e-16
-5.85569077e-05
-6.31050033e-05
-6.40185425e-06
1.60919098e-16
1.38486141e-16
-3.39570234e-05
-1.65897615e-04
4.64143498e-04
1.37307963e-04
-3.84848472e-05
-4.47447067e-16
5.70575072e-04
-1.45714842e-03
-3.21865057e-03
9.79721213e-16
9.63027314e-05
5.33139101e-05
8.06494275e-05
2.07344708e-16
-2.26333330e-16
1.96785328e-04
3.56053131e-04
1.36548298e-04
1.02167717e-04
-5.53749947e-05
-2.32017664e-16
1.42304193e-03
-4.62188612e-04
-4.68306384e-04
3.16537135e-17
-2.63539510e-05
4.69470592e-05
-8.19539021e-05
-2.14533871e-16
-3.07382878e-17
6.01127519e-05
-5.21175413e-03
1.41384794e-04
-9.97389407e-05
9.85295778e-06
-2.70010896e-16
-6.18922760e-03
1.67420987e-03
3.27926284e-03
-3.67173229e-16
2.43906985e-04
-4.11761208e-05
2.80652779e-04
-4.35385444e-17
1.50986884e-16
1.95781631e-04
-9.95286371e-01
-3.04638966e-02
-6.77076858e-04
1.45509248e-03
-1.99948823e-16
6.08483078e-03
-4.24130818e-03
5.87083379e-03
5.35353076e-16
1.97047568e-03
5.60681036e-04
2.53573822e-03
3.65989596e-17
5.79953124e-16
2.50253792e-03
1.39719975e-04
-1.36034689e-03
2.29612374e-04
-1.17887218e-04
-9.61031863e-17
7.72406765e-03
-3.15283239e-03
1.38677286e-03
-4.09379973e-16
-3.84617036e-05
-3.68194256e-04
-6.13008455e-04
-7.19806251e-17
-1.71787197e-16
-7.41306964e-04
1.09216601e-04
4.79547059e-04
3.82222149e-06
-6.36537487e-06
2.68025304e-16
-3.28218707e-03
-8.60581003e-04
-1.36659961e-04
-2.78362320e-16
2.20294039e-04
-3.88912809e-05
3.38010396e-04
2.07742813e-16
-8.35533882e-17
2.84894960e-04
3.45389787e-05
-1.43093724e-04
-2.93584908e-06
7.14711099e-05
6.49064728e-06
-1.38067651e-04
-2.84678114e-05
-7.82319621e-04
   *****

 Right Dyson orbital norm is 0.953269

Right alpha Dyson orbital in the MO basis (canonical Q-Chem's ordering):
0     -1.2204e-05
1     -1.4377e-07
2     1.9619e-05
3     -9.4635e-08
4     4.6246e-05
5     1.0000e+00
6     1.1056e-04
7     1.5120e-04
8     -7.0603e-16
9     2.4720e-17
10    -5.5121e-16
11    -4.7358e-16
12    -4.5818e-16
13    4.6491e-16
14    2.3245e-16
15    -3.1333e-16
16    -5.0480e-16
17    -5.3126e-17
18    3.7588e-16
19    -1.4485e-16
20    5.6379e-17
21    1.6216e-16
22    4.3390e-16
23    -1.7358e-16
24    -4.9700e-16
25    2.9463e-16
26    1.5757e-16
27    -1.7456e-16
28    1.7877e-16
29    1.4130e-16
30    -9.4613e-17
31    9.7763e-16
32    2.4915e-16
33    2.4660e-16
34    3.7006e-17
35    8.3484e-18
36    -3.5822e-16
37    6.9042e-16
38    9.5193e-16
39    -9.8012e-16
40    -1.6653e-16
41    -3.0986e-16
42    7.1194e-16
43    2.1424e-16
44    -3.4664e-16
45    -5.8113e-17
46    -3.6321e-16
47    -6.1623e-17
48    -1.5049e-16
49    -2.6685e-16
50    -1.1899e-16
51    9.0108e-16
52    2.8753e-16
53    1.3826e-16
54    1.2527e-15
55    -5.3213e-16
56    -6.1448e-17
57    1.0448e-16
58    1.0061e-16
59    -1.6419e-15
60    2.0515e-16
61    -1.0365e-16
62    6.2960e-16
63    -2.9924e-16
64    -6.5184e-16
65    2.2335e-16
66    2.3641e-16
67    -3.8663e-16
68    2.9089e-16
69    2.8457e-16
70    -2.2850e-16
71    -2.5674e-16
72    6.2919e-16
73    -3.1442e-16
74    -2.3592e-16
75    9.6095e-17
76    1.5016e-17
77    1.1776e-16
78    -1.9386e-16
79    -1.0002e-16
80    5.0953e-16
81    -6.8250e-17
82    1.1118e-16
83    -4.7076e-16
84    -1.2800e-15
85    2.2885e-16
86    -1.2268e-15
87    5.6232e-16
88    5.6400e-16
89    3.0347e-16
90    -1.5867e-16
91    -1.3674e-16
92    -4.9147e-16
93    1.7965e-16
94    -1.9592e-16
95    1.7198e-16
96    2.2665e-16
97    -5.6617e-16
98    6.4770e-16
99    1.3433e-16
100   -2.3975e-17
101   9.5784e-16
102   3.1813e-16
103   9.5909e-16
104   4.1740e-17
105   9.2385e-16
106   3.2407e-16
107   -1.9851e-16
108   7.8308e-16
109   -3.8421e-17
110   -1.8979e-16
111   3.4050e-16
112   -2.9311e-16
113   1.1395e-16
114   5.6617e-16
115   -1.4463e-16
116   -2.2947e-16
117   6.1713e-16
118   4.3905e-16
119   6.8679e-16
120   -1.4322e-16
121   -2.1792e-16
122   8.6107e-16
123   -1.0277e-15
124   -8.5652e-16
125   -3.8753e-16
126   -1.6914e-16
127   8.6606e-16

Decomposition over AOs for the right alpha Dyson orbital:
2.58375549e-04
-2.06645111e-04
-2.20715481e-04
-1.77531329e-05
1.23349563e-16
-1.49712572e-03
2.31856705e-03
-2.95190972e-04
-4.77705986e-16
6.01726608e-04
2.10436246e-04
2.08578054e-04
-7.66146908e-17
-9.99104703e-18
2.69256803e-05
-2.41666111e-05
-1.06960385e-04
3.00659976e-05
9.69425757e-07
1.06426805e-16
1.49440780e-03
-5.95140739e-05
-1.20325598e-03
-2.61826460e-16
-5.84530037e-05
-6.31041131e-05
-6.34217068e-06
1.60841120e-16
1.38518284e-16
-3.39161838e-05
-1.65978038e-04
4.64117405e-04
1.37311767e-04
-3.84731352e-05
-4.47080727e-16
5.70892775e-04
-1.45662936e-03
-3.21834671e-03
9.79681042e-16
9.62987019e-05
5.33182243e-05
8.06476007e-05
2.07090046e-16
-2.26200405e-16
1.96772677e-04
3.48280185e-04
1.36190211e-04
1.02080824e-04
-5.53202638e-05
-2.31913783e-16
1.42575270e-03
-4.61671471e-04
-4.69394241e-04
3.16636793e-17
-2.64939103e-05
4.69590580e-05
-8.20400655e-05
-2.14368909e-16
-3.07726821e-17
6.00897186e-05
-4.80925182e-03
1.52183509e-04
-9.98633252e-05
9.68516333e-06
-2.69938983e-16
-6.19543058e-03
1.67528907e-03
3.28006837e-03
-3.67207430e-16
2.43442183e-04
-4.12452535e-05
2.80152360e-04
-4.36532526e-17
1.50854270e-16
1.94841936e-04
-9.95288580e-01
-3.04639641e-02
-6.77094094e-04
1.45503494e-03
-2.00111292e-16
6.08717834e-03
-4.24177756e-03
5.87177097e-03
5.35653654e-16
1.97036250e-03
5.60684089e-04
2.53544306e-03
3.65911746e-17
5.79613619e-16
2.50249218e-03
1.40087036e-04
-1.36036793e-03
2.29599739e-04
-1.17889730e-04
-9.62334775e-17
7.72414669e-03
-3.15286067e-03
1.38671553e-03
-4.09495758e-16
-3.84310232e-05
-3.68199811e-04
-6.12993316e-04
-7.18932922e-17
-1.71764203e-16
-7.41343078e-04
1.09172542e-04
4.79471639e-04
3.81668683e-06
-6.36811701e-06
2.67898370e-16
-3.28169356e-03
-8.60489577e-04
-1.36605878e-04
-2.78345228e-16
2.20251058e-04
-3.88884124e-05
3.37965351e-04
2.07546736e-16
-8.36175204e-17
2.84848826e-04
3.45160449e-05
-1.43077287e-04
-2.96622306e-06
7.14606218e-05
6.49873031e-06
-1.37896368e-04
-2.85690337e-05
-7.81844896e-04
   *****

     End transition


 Reference -- EOM-IP-CCSD state  4/A'   transition
 Energy difference = 297.3323 eV.

 Left Dyson orbital norm is 0.931897

Left alpha Dyson orbital in the MO basis (canonical Q-Chem's ordering):
0     1.1412e-07
1     1.7736e-05
2     -2.6848e-05
3     2.7028e-05
4     -1.0000e+00
5     4.6489e-05
6     -3.0551e-05
7     2.6605e-05
8     3.7394e-16
9     5.1521e-16
10    2.4254e-16
11    -6.5269e-16
12    -9.1940e-17
13    1.9342e-16
14    -1.6567e-16
15    2.2248e-16
16    1.1037e-16
17    -2.0383e-16
18    2.2697e-16
19    -2.6021e-16
20    -4.2284e-16
21    2.6557e-16
22    -9.3675e-17
23    -1.0652e-16
24    -6.1962e-16
25    -1.3176e-16
26    -1.6885e-16
27    9.0233e-17
28    -2.7752e-16
29    -7.6695e-17
30    -9.5445e-18
31    2.6731e-16
32    -5.0958e-17
33    -8.6996e-16
34    -3.4761e-16
35    -1.3745e-16
36    4.7098e-16
37    4.4951e-16
38    -4.6664e-16
39    -4.7922e-16
40    -5.4991e-16
41    -2.2828e-16
42    9.0206e-17
43    -1.2913e-16
44    1.4211e-16
45    3.1225e-16
46    4.8765e-16
47    2.4858e-16
48    -2.6823e-16
49    1.8058e-16
50    1.1874e-15
51    -2.4216e-16
52    1.3010e-16
53    1.3559e-16
54    -4.5580e-16
55    -4.0332e-16
56    -5.1238e-16
57    2.0123e-16
58    7.1948e-16
59    1.7954e-16
60    1.5197e-16
61    -7.1842e-16
62    -2.1034e-16
63    -1.5894e-16
64    1.4653e-16
65    5.0394e-16
66    2.5454e-17
67    1.2360e-17
68    1.2935e-16
69    -8.1564e-16
70    -8.4751e-16
71    -1.2604e-15
72    7.0122e-16
73    -2.0779e-16
74    -8.1044e-16
75    3.9403e-16
76    1.3112e-15
77    -3.9591e-17
78    2.8731e-17
79    7.8812e-17
80    -5.0979e-16
81    2.1469e-16
82    -1.8522e-16
83    -7.7401e-16
84    4.5320e-17
85    1.1494e-16
86    8.2681e-16
87    3.2709e-16
88    -4.4084e-16
89    4.2696e-16
90    -4.7597e-17
91    2.3056e-16
92    7.3590e-16
93    -5.9838e-16
94    -5.6509e-16
95    -8.4872e-16
96    1.0985e-15
97    6.1234e-16
98    1.5683e-16
99    5.5077e-17
100   -2.3197e-16
101   -3.5811e-16
102   -1.2489e-16
103   2.6520e-16
104   -7.8519e-17
105   8.7628e-16
106   7.7515e-16
107   3.8463e-16
108   -4.3010e-16
109   4.7994e-16
110   3.9234e-16
111   -9.2780e-16
112   -5.4801e-16
113   4.9846e-17
114   5.0741e-17
115   1.1561e-15
116   3.2006e-16
117   -3.9031e-16
118   1.8003e-16
119   3.2526e-18
120   1.4014e-15
121   -4.8843e-17
122   1.1528e-15
123   1.0051e-15
124   5.7788e-17
125   1.2723e-16
126   -8.6907e-16
127   -7.2657e-16

Decomposition over AOs for the left alpha Dyson orbital:
-2.79712421e-04
3.08854125e-04
-7.39020429e-05
4.72194710e-06
4.65971089e-16
2.22652821e-04
1.55697311e-03
-7.71883623e-04
1.47200413e-17
-6.57428566e-04
2.81117627e-04
-2.34894969e-04
-8.64260363e-17
1.25239742e-16
9.36501030e-05
-2.53108524e-04
3.55105208e-04
-2.15815924e-05
-8.14222917e-05
-2.05030545e-16
-1.63636498e-04
-3.87621560e-04
9.55363276e-04
3.50961611e-16
-1.46698675e-04
-6.66329593e-05
-6.45739293e-04
4.89811940e-17
5.37272679e-16
1.26296765e-04
9.95872884e-01
2.58818724e-02
6.53046254e-04
1.66910626e-04
4.87796107e-16
-2.36001201e-03
-3.56927135e-03
-2.39740342e-03
-6.53040531e-16
-5.29961642e-04
3.38758056e-04
-9.51982820e-04
-3.40536089e-16
1.13957922e-16
-2.30447520e-03
-2.06152557e-04
-5.54671867e-04
4.64762351e-05
1.55765342e-04
9.27685494e-17
4.01379006e-03
1.32515152e-03
-3.85325887e-03
1.90027871e-17
8.82400080e-05
4.14548254e-05
9.11941886e-05
-1.68973896e-16
-1.20930740e-16
-2.06458754e-04
-7.90254986e-06
3.22929681e-04
9.09859846e-05
5.85719333e-05
7.54807230e-17
-6.59766409e-03
3.09160045e-03
1.88128492e-03
6.59991281e-16
-8.46439774e-05
-3.00852124e-05
-3.08067243e-05
1.52418681e-16
-1.03946442e-15
5.99400125e-05
-3.84260033e-04
-6.32716474e-04
1.24924396e-04
-4.40345390e-06
2.43447235e-17
1.82725876e-03
-3.23005141e-03
3.91061289e-03
-5.72270927e-16
-7.13108146e-05
4.10217464e-05
-8.45823145e-05
3.06620558e-16
-4.16267796e-16
-2.34766374e-04
-1.25473751e-04
-5.51869962e-04
-1.98762993e-06
4.43887275e-06
-3.07836791e-16
4.00864371e-03
-8.30670692e-04
2.54743410e-04
-6.05537324e-17
-2.98821092e-04
-3.07532440e-05
-3.78342474e-04
3.71651870e-16
1.20382290e-17
-3.01604480e-04
-2.24397884e-04
1.00476536e-03
3.19278809e-04
1.90366895e-04
-3.68852576e-16
-5.66680072e-03
-2.04798126e-03
-1.19811615e-03
6.60900790e-16
3.72923682e-04
-4.81635176e-05
4.14092954e-04
-7.05471641e-16
-6.40615484e-16
5.90033946e-04
-1.07114858e-04
-8.33243277e-07
-6.59473235e-05
-1.07816231e-04
2.04932418e-04
1.39117594e-03
-7.49418731e-05
-8.35743741e-04
   *****

 Right Dyson orbital norm is 0.954686

Right alpha Dyson orbital in the MO basis (canonical Q-Chem's ordering):
0     1.3089e-07
1     1.8145e-05
2     -2.5175e-05
3     2.5662e-05
4     -1.0000e+00
5     4.6033e-05
6     -3.8861e-05
7     2.3472e-05
8     3.7378e-16
9     5.0654e-16
10    2.4340e-16
11    -6.5486e-16
12    -9.5410e-17
13    1.9602e-16
14    -1.6133e-16
15    2.2291e-16
16    1.1189e-16
17    -1.9949e-16
18    2.2697e-16
19    -2.5891e-16
20    -4.2284e-16
21    2.6557e-16
22    -9.6711e-17
23    -1.0723e-16
24    -6.1951e-16
25    -1.3176e-16
26    -1.6885e-16
27    9.0260e-17
28    -2.7751e-16
29    -7.6694e-17
30    -9.5479e-18
31    2.6736e-16
32    -5.0741e-17
33    -8.7018e-16
34    -3.4761e-16
35    -1.3729e-16
36    4.7141e-16
37    4.4908e-16
38    -4.6838e-16
39    -4.8008e-16
40    -5.5121e-16
41    -2.2774e-16
42    9.0422e-17
43    -1.2924e-16
44    1.4210e-16
45    3.1572e-16
46    4.8758e-16
47    2.4858e-16
48    -2.6796e-16
49    1.8057e-16
50    1.1887e-15
51    -2.4243e-16
52    1.3097e-16
53    1.3559e-16
54    -4.5406e-16
55    -4.0202e-16
56    -5.1237e-16
57    2.0166e-16
58    7.1818e-16
59    1.7976e-16
60    1.5197e-16
61    -7.1843e-16
62    -2.1185e-16
63    -1.5911e-16
64    1.4656e-16
65    5.0415e-16
66    2.5453e-17
67    1.2577e-17
68    1.2918e-16
69    -8.1563e-16
70    -8.4758e-16
71    -1.2604e-15
72    7.0122e-16
73    -2.0776e-16
74    -8.1001e-16
75    3.9403e-16
76    1.3112e-15
77    -3.9592e-17
78    2.8894e-17
79    7.8811e-17
80    -5.0979e-16
81    2.1469e-16
82    -1.8522e-16
83    -7.7423e-16
84    4.5211e-17
85    1.1493e-16
86    8.2698e-16
87    3.2729e-16
88    -4.4073e-16
89    4.2718e-16
90    -4.7598e-17
91    2.3047e-16
92    7.3596e-16
93    -5.9838e-16
94    -5.6525e-16
95    -8.4871e-16
96    1.0986e-15
97    6.1233e-16
98    1.5726e-16
99    5.4806e-17
100   -2.3197e-16
101   -3.5822e-16
102   -1.2489e-16
103   2.6487e-16
104   -7.8520e-17
105   8.7625e-16
106   7.7596e-16
107   3.8462e-16
108   -4.2999e-16
109   4.7994e-16
110   3.9233e-16
111   -9.2779e-16
112   -5.4806e-16
113   5.0036e-17
114   5.0876e-17
115   1.1558e-15
116   3.1998e-16
117   -3.8966e-16
118   1.7998e-16
119   3.2255e-18
120   1.4012e-15
121   -4.8599e-17
122   1.1528e-15
123   1.0052e-15
124   5.8005e-17
125   1.2712e-16
126   -8.6908e-16
127   -7.2653e-16

Decomposition over AOs for the right alpha Dyson orbital:
-2.78047931e-04
3.08895550e-04
-7.39016227e-05
4.72226844e-06
4.65960999e-16
2.22665081e-04
1.55696177e-03
-7.71879326e-04
1.47281925e-17
-6.57435035e-04
2.81117122e-04
-2.34901492e-04
-8.64234574e-17
1.25238731e-16
9.36437943e-05
-2.51748132e-04
3.55137632e-04
-2.15822842e-05
-8.14230276e-05
-2.05030875e-16
-1.63648091e-04
-3.87606989e-04
9.55372217e-04
3.50966193e-16
-1.46698412e-04
-6.66298435e-05
-6.45741006e-04
4.89831940e-17
5.37269512e-16
1.26291812e-04
9.95872884e-01
2.58818757e-02
6.53046597e-04
1.66911119e-04
4.87787291e-16
-2.36001248e-03
-3.56929821e-03
-2.39740042e-03
-6.53039538e-16
-5.29961836e-04
3.38758079e-04
-9.51983908e-04
-3.40530412e-16
1.13954975e-16
-2.30447448e-03
-2.14495808e-04
-5.54921243e-04
4.64811676e-05
1.55772028e-04
9.27677250e-17
4.01388841e-03
1.32517304e-03
-3.85327062e-03
1.90019008e-17
8.82573839e-05
4.14541718e-05
9.12154579e-05
-1.68974578e-16
-1.20929650e-16
-2.06438718e-04
-4.97542661e-06
3.23009732e-04
9.09840541e-05
5.85713855e-05
7.54798135e-17
-6.59773795e-03
3.09162145e-03
1.88127602e-03
6.59989444e-16
-8.46457429e-05
-3.00857820e-05
-3.08077942e-05
1.52418316e-16
-1.03945688e-15
5.99338093e-05
-3.83823630e-04
-6.32701315e-04
1.24924456e-04
-4.40445939e-06
2.43447292e-17
1.82727177e-03
-3.23005279e-03
3.91060888e-03
-5.72273936e-16
-7.13131342e-05
4.10221546e-05
-8.45868142e-05
3.06617551e-16
-4.16260848e-16
-2.34767736e-04
-1.25490271e-04
-5.51869104e-04
-1.98791735e-06
4.43899857e-06
-3.07835263e-16
4.00863564e-03
-8.30668546e-04
2.54742227e-04
-6.05522714e-17
-2.98819952e-04
-3.07532374e-05
-3.78341498e-04
3.71649007e-16
1.20404349e-17
-3.01603895e-04
-2.24804539e-04
1.00475955e-03
3.19278278e-04
1.90366575e-04
-3.68844449e-16
-5.66682299e-03
-2.04798350e-03
-1.19812046e-03
6.60894561e-16
3.72927344e-04
-4.81637920e-05
4.14096175e-04
-7.05467749e-16
-6.40612213e-16
5.90037055e-04
-1.07114313e-04
-8.32121185e-07
-6.59451477e-05
-1.07813071e-04
2.04933623e-04
1.39116395e-03
-7.49418951e-05
-8.35738839e-04
   *****

     End transition

 Dyson orbitals calculation:   CPU 0.03 s  wall 0.03 s

 Total ccman2 time:   CPU 237.44 s  wall 133.60 s


 --------------------------------------------------------------
             Orbital Energies (a.u.) and Symmetries
 --------------------------------------------------------------

 Alpha MOs, Unrestricted
 -- Occupied --                  
-20.699 -20.533 -15.621 -15.606 -11.402 -11.335 -11.276 -11.245
  1 A'    2 A'    3 A'    4 A'    5 A'    6 A'    7 A'    8 A'                 
 -1.554  -1.412  -1.289  -1.233  -1.062  -0.927  -0.900  -0.797
  9 A'   10 A'   11 A'   12 A'   13 A'   14 A'   15 A'   16 A'                 
 -0.773  -0.750  -0.730  -0.684  -0.665  -0.636  -0.633  -0.601
 17 A'   18 A'    1 A"   19 A'   20 A'    2 A"   21 A'   22 A'                 
 -0.539  -0.522  -0.487  -0.453  -0.370  -0.234
 23 A'    3 A"    4 A"   24 A'    5 A"    6 A"                                 
 -- Virtual --                   
  0.180   0.211   0.248   0.276   0.293   0.307   0.375   0.394
  7 A"   25 A'   26 A'   27 A'    8 A"   28 A'   29 A'   30 A'                 
  0.416   0.463   0.505   0.544   0.565   0.674   0.698   0.729
 31 A'   32 A'   33 A'   34 A'   35 A'   36 A'    9 A"   37 A'                 
  0.758   0.784   0.792   0.804   0.809   0.879   0.886   0.909
 38 A'   10 A"   39 A'   11 A"   40 A'   41 A'   42 A'   12 A"                 
  0.944   0.958   0.996   1.033   1.085   1.094   1.098   1.113
 43 A'   44 A'   13 A"   45 A'   46 A'   47 A'   14 A"   48 A'                 
  1.126   1.144   1.181   1.197   1.197   1.237   1.328   1.331
 49 A'   50 A'   51 A'   52 A'   15 A"   53 A'   54 A'   16 A"                 
  1.357   1.367   1.439   1.470   1.549   1.595   1.602   1.639
 55 A'   56 A'   17 A"   57 A'   58 A'   18 A"   59 A'   19 A"                 
  1.678   1.688   1.717   1.729   1.738   1.835   1.866   1.964
 60 A'   20 A"   61 A'   21 A"   22 A"   62 A'   63 A'   23 A"                 
  1.988   2.017   2.052   2.099   2.101   2.143   2.200   2.257
 64 A'   65 A'   66 A'   67 A'   24 A"   68 A'   69 A'   25 A"                 
  2.271   2.304   2.322   2.385   2.458   2.497   2.500   2.542
 70 A'   26 A"   71 A'   72 A'   73 A'   74 A'   27 A"   75 A'                 
  2.592   2.603   2.647   2.732   2.899   2.902   2.962   2.970
 28 A"   76 A'   29 A"   77 A'   78 A'   30 A"   79 A'   80 A'                 
  2.992   3.010   3.097   3.141   3.192   3.276   3.342   3.355
 31 A"   32 A"   81 A'   82 A'   83 A'   84 A'   85 A'   86 A'                 
  3.589   3.788   4.331   4.356   4.424   4.550   4.610   4.791
 87 A'   88 A'   89 A'   90 A'   91 A'   92 A'   93 A'   94 A'                 
  5.010   5.060
 95 A'   96 A'                                                                 

 Beta MOs, Unrestricted
 -- Occupied --                  
-20.654 -20.532 -15.616 -15.603 -11.402 -11.319 -11.259 -11.256
  1 A'    2 A'    3 A'    4 A'    5 A'    6 A'    7 A'    8 A'                 
 -1.421  -1.401  -1.272  -1.210  -1.049  -0.885  -0.863  -0.776
  9 A'   10 A'   11 A'   12 A'   13 A'   14 A'   15 A'   16 A'                 
 -0.725  -0.706  -0.672  -0.642  -0.630  -0.597  -0.592  -0.555
 17 A'   18 A'   19 A'    1 A"   20 A'   21 A'    2 A"   22 A'                 
 -0.472  -0.450  -0.439  -0.364
  3 A"   23 A'    4 A"    5 A"                                                 
 -- Virtual --                   
  0.036   0.173   0.201   0.215   0.253   0.277   0.315   0.353
 24 A'    6 A"    7 A"   25 A'   26 A'   27 A'   28 A'    8 A"                 
  0.404   0.413   0.434   0.469   0.528   0.558   0.583   0.697
 29 A'   30 A'   31 A'   32 A'   33 A'   34 A'   35 A'   36 A'                 
  0.727   0.745   0.775   0.799   0.802   0.818   0.854   0.893
  9 A"   37 A'   38 A'   39 A'   10 A"   40 A'   11 A"   41 A'                 
  0.907   0.912   0.957   0.974   1.016   1.040   1.089   1.104
 12 A"   42 A'   43 A'   44 A'   13 A"   45 A'   46 A'   47 A'                 
  1.117   1.118   1.131   1.160   1.184   1.241   1.246   1.277
 14 A"   48 A'   49 A'   50 A'   51 A'   52 A'   15 A"   53 A'                 
  1.336   1.336   1.374   1.392   1.465   1.482   1.560   1.611
 54 A'   16 A"   55 A'   56 A'   17 A"   57 A'   58 A'   59 A'                 
  1.617   1.658   1.689   1.722   1.724   1.745   1.755   1.843
 18 A"   19 A"   60 A'   20 A"   61 A'   21 A"   22 A"   62 A'                 
  1.887   2.015   2.046   2.055   2.084   2.104   2.117   2.155
 63 A'   64 A'   23 A"   65 A'   66 A'   24 A"   67 A'   68 A'                 
  2.225   2.269   2.283   2.311   2.333   2.408   2.470   2.521
 69 A'   25 A"   70 A'   26 A"   71 A'   72 A'   73 A'   27 A"                 
  2.525   2.546   2.613   2.627   2.665   2.737   2.900   2.931
 74 A'   75 A'   28 A"   76 A'   29 A"   77 A'   78 A'   30 A"                 
  2.978   2.989   3.009   3.018   3.106   3.150   3.197   3.299
 79 A'   80 A'   31 A"   32 A"   81 A'   82 A'   83 A'   84 A'                 
  3.353   3.362   3.597   3.792   4.350   4.364   4.431   4.560
 85 A'   86 A'   87 A'   88 A'   89 A'   90 A'   91 A'   92 A'                 
  4.611   4.807   5.011   5.075
 93 A'   94 A'   95 A'   96 A'                                                 
 --------------------------------------------------------------

          Ground-State Mulliken Net Atomic Charges

     Atom                 Charge (a.u.)    Spin (a.u.)
  --------------------------------------------------------
      1 N                    -0.943143       0.063870
      2 N                    -0.873876       0.026008
      3 C                     1.053326      -0.013399
      4 C                     0.085072       0.829355
      5 C                    -0.316071      -0.629259
      6 C                     0.615134       0.684207
      7 O                    -0.259173       1.054515
      8 O                    -0.620855       0.022923
      9 H                     0.410174      -0.006244
     10 H                     0.411619      -0.007597
     11 H                     0.216494      -0.066029
     12 H                     0.221297       0.041650
  --------------------------------------------------------
  Sum of atomic charges =     0.000000
  Sum of spin   charges =     2.000000

 -----------------------------------------------------------------
                    Cartesian Multipole Moments
 -----------------------------------------------------------------
    Charge (ESU x 10^10)
                -0.0000
    Dipole Moment (Debye)
         X       2.0066      Y       2.1178      Z       0.0000
       Tot       2.9174
    Quadrupole Moments (Debye-Ang)
        XX     -51.4440     XY      -5.8857     YY     -38.2376
        XZ      -0.0000     YZ      -0.0000     ZZ     -47.3398
    Octopole Moments (Debye-Ang^2)
       XXX      13.1419    XXY      24.2484    XYY       1.4284
       YYY      -3.6469    XXZ       0.0000    XYZ       0.0000
       YYZ       0.0000    XZZ      -1.8764    YZZ      -5.3870
       ZZZ       0.0000
    Hexadecapole Moments (Debye-Ang^3)
      XXXX    -637.4696   XXXY     -31.9060   XXYY    -161.7508
      XYYY     -22.5345   YYYY    -309.3825   XXXZ      -0.0000
      XXYZ      -0.0000   XYYZ      -0.0000   YYYZ      -0.0000
      XXZZ    -109.4976   XYZZ      -2.6376   YYZZ     -74.7917
      XZZZ      -0.0000   YZZZ      -0.0000   ZZZZ     -43.2270
 -----------------------------------------------------------------
Archival summary:
1\1\Annas-MacBook-Pro-4.local\SP\ProcedureUnspecified\6-31G*\2244(3)\WedMay2906:41:032019WedMay2906:41:032019\0\\#,ProcedureUnspecified,6-31G*,\\0,3\N\H,1,1.01538\C,1,1.38049,2,115.582\O,3,1.2104,1,124.196,2,0,0\N,3,1.38945,1,113.089,2,-180,0\H,5,1.01132,3,115.073,1,-180,0\C,5,1.3722,3,123.45,1,-0,0\H,7,1.09034,5,115.558,3,-180,0\C,7,1.34729,5,122.094,3,-0,0\H,9,1.08676,7,122.157,5,-180,0\C,1,1.40477,2,116.161,3,180,0\O,11,1.2125,1,120.408,2,-0,0\\HF=-412.331484\\@

 Total job time:  150.49s(wall), 254.03s(cpu) 
 Wed May 29 06:41:03 2019

        *************************************************************
        *                                                           *
        *  Thank you very much for using Q-Chem.  Have a nice day.  *
        *                                                           *
        *************************************************************


