                  Welcome to Q-Chem
     A Quantum Leap Into The Future Of Chemistry


 Q-Chem 5.2 (devel), Q-Chem, Inc., Pleasanton, CA (2019)

 Yihan Shao,  Zhengting Gan,  E. Epifanovsky,  A. T. B. Gilbert,  M. Wormit,  
 J. Kussmann,  A. W. Lange,  A. Behn,  Jia Deng,  Xintian Feng,  D. Ghosh,  
 M. Goldey,  P. R. Horn,  L. D. Jacobson,  I. Kaliman,  T. Kus,  A. Landau,  
 Jie Liu,  E. I. Proynov,  R. M. Richard,  R. P. Steele,  E. J. Sundstrom,  
 H. L. Woodcock III,  P. M. Zimmerman,  D. Zuev,  B. Albrecht,  E. Alguire,  
 S. A. Baeppler,  D. Barton,  Z. Benda,  Y. A. Bernard,  E. J. Berquist,  
 K. B. Bravaya,  H. Burton,  D. Casanova,  Chun-Min Chang,  Yunqing Chen,  
 A. Chien,  K. D. Closser,  M. P. Coons,  S. Coriani,  S. Dasgupta,  
 A. L. Dempwolff,  M. Diedenhofen,  Hainam Do,  R. G. Edgar,  Po-Tung Fang,  
 S. Faraji,  S. Fatehi,  Qingguo Feng,  K. D. Fenk,  J. Fosso-Tande,  
 J. Gayvert,  Qinghui Ge,  A. Ghysels,  G. Gidofalvi,  J. Gomes,  
 J. Gonthier,  A. Gunina,  D. Hait,  M. W. D. Hanson-Heine,  
 P. H. P. Harbach,  A. W. Hauser,  M. F. Herbst,  J. E. Herr,  
 E. G. Hohenstein,  Z. C. Holden,  Kerwin Hui,  B. C. Huynh,  T.-C. Jagau,  
 Hyunjun Ji,  B. Kaduk,  K. Khistyaev,  Jaehoon Kim,  P. Klunzinger,  K. Koh,  
 D. Kosenkov,  L. Koulias,  T. Kowalczyk,  C. M. Krauter,  A. Kunitsa,  
 Ka Un Lao,  A. Laurent,  K. V. Lawler,  Joonho Lee,  D. Lefrancois,  
 S. Lehtola,  D. S. Levine,  Yi-Pei Li,  You-Sheng Lin,  Fenglai Liu,  
 E. Livshits,  A. Luenser,  P. Manohar,  E. Mansoor,  S. F. Manzer,  
 Shan-Ping Mao,  Yuezhi Mao,  N. Mardirossian,  A. V. Marenich,  
 T. Markovich,  L. A. Martinez-Martinez,  S. A. Maurer,  N. J. Mayhall,  
 S. C. McKenzie,  J.-M. Mewes,  P. Morgante,  A. F. Morrison,  
 J. W. Mullinax,  K. Nanda,  T. S. Nguyen-Beck,  R. Olivares-Amaya,  
 J. A. Parkhill,  Zheng Pei,  T. M. Perrine,  F. Plasser,  P. Pokhilko,  
 S. Prager,  A. Prociuk,  E. Ramos,  D. R. Rehn,  F. Rob,  M. Scheurer,  
 M. Schneider,  N. Sergueev,  S. M. Sharada,  S. Sharma,  D. W. Small,  
 T. Stauch,  T. Stein,  Yu-Chuan Su,  A. J. W. Thom,  A. Tkatchenko,  
 T. Tsuchimochi,  N. M. Tubman,  L. Vogt,  M. L. Vidal,  O. Vydrov,  
 M. A. Watson,  J. Wenzel,  M. de Wergifosse,  T. A. Wesolowski,  A. White,  
 J. Witte,  A. Yamada,  Jun Yang,  K. Yao,  S. Yeganeh,  S. R. Yost,  
 Zhi-Qiang You,  A. Zech,  Igor Ying Zhang,  Xing Zhang,  Yan Zhao,  
 Ying Zhu,  B. R. Brooks,  G. K. L. Chan,  C. J. Cramer,  M. S. Gordon,  
 W. J. Hehre,  A. Klamt,  M. W. Schmidt,  C. D. Sherrill,  D. G. Truhlar,  
 A. Aspuru-Guzik,  R. Baer,  A. T. Bell,  N. A. Besley,  Jeng-Da Chai,  
 A. E. DePrince, III,  R. A. DiStasio Jr.,  A. Dreuw,  B. D. Dunietz,  
 T. R. Furlani,  Chao-Ping Hsu,  Yousung Jung,  Jing Kong,  D. S. Lambrecht,  
 WanZhen Liang,  C. Ochsenfeld,  V. A. Rassolov,  L. V. Slipchenko,  
 J. E. Subotnik,  T. Van Voorhis,  J. M. Herbert,  A. I. Krylov,  
 P. M. W. Gill,  M. Head-Gordon

 Contributors to earlier versions of Q-Chem not listed above: 
 R. D. Adamson,  B. Austin,  J. Baker,  G. J. O. Beran,  K. Brandhorst,  
 S. T. Brown,  E. F. C. Byrd,  A. K. Chakraborty,  C.-L. Cheng,  
 Siu Hung Chien,  D. M. Chipman,  D. L. Crittenden,  H. Dachsel,  
 R. J. Doerksen,  A. D. Dutoi,  L. Fusti-Molnar,  W. A. Goddard III,  
 A. Golubeva-Zadorozhnaya,  S. R. Gwaltney,  G. Hawkins,  A. Heyden,  
 S. Hirata,  G. Kedziora,  F. J. Keil,  C. Kelley,  Jihan Kim,  R. A. King,  
 R. Z. Khaliullin,  P. P. Korambath,  W. Kurlancheek,  A. M. Lee,  M. S. Lee,  
 S. V. Levchenko,  Ching Yeh Lin,  D. Liotard,  R. C. Lochan,  I. Lotan,  
 P. E. Maslen,  N. Nair,  D. P. O'Neill,  D. Neuhauser,  E. Neuscamman,  
 C. M. Oana,  R. Olson,  B. Peters,  R. Peverati,  P. A. Pieniazek,  
 Y. M. Rhee,  J. Ritchie,  M. A. Rohrdanz,  E. Rosta,  N. J. Russ,  
 H. F. Schaefer III,  N. E. Schultz,  N. Shenvi,  A. C. Simmonett,  A. Sodt,  
 D. Stuck,  K. S. Thanthiriwatte,  V. Vanovschi,  Tao Wang,  A. Warshel,  
 C. F. Williams,  Q. Wu,  X. Xu,  W. Zhang

 Please cite Q-Chem as follows:
 Y. Shao et al., Mol. Phys. 113, 184-215 (2015)
 DOI: 10.1080/00268976.2014.952696

 Q-Chem 5.2.0 for Mac (Intel) OS X

 Parts of Q-Chem use Armadillo 8.300.2 (Tropical Shenanigans).
 http://arma.sourceforge.net/

 Q-Chem begins on Wed May 29 06:20:00 2019  

Annas-MacBook-Pro-4.local
Host: 0

     Scratch files written to /scratch/qchem7689//
Processing $rem in /Users/annakrylov/.qchemrc:
	CC_MEMORY  8000
NAlpha2: 58
NElect   58
Mult     1
Core orbitals will be frozen

Checking the input file for inconsistencies... 	...done.

--------------------------------------------------------------
User input:
--------------------------------------------------------------
$comment
I think this is equilibrium geometry. I symmetrized it with IQmol
$end

$molecule
0 1
N          0.00000        0.95064        0.03617
N          0.00000       -1.01646       -1.17678
C          0.00000        0.37240       -1.21738
C          0.00000       -1.73906       -0.01025
C          0.00000       -1.14569        1.19934
C          0.00000        0.31332        1.28805
O          0.00000        0.96679        2.30939
O          0.00000        0.99654       -2.25445
H          0.00000        1.96592        0.05068
H          0.00000       -1.47161       -2.07989
H          0.00000       -2.82299       -0.12835
H          0.00000       -1.71696        2.12384
$end

$rem
JOBTYPE SP
BASIS 6-31G*
METHOD EOM-CCSD
cvs_ip_states  [4,0]
cc_trans_prop  true
cc_do_dyson = true
!state_analysis true
!molden_format  true
!nto_pairs      3
!pop_mulliken   true
$end
--------------------------------------------------------------
 ----------------------------------------------------------------
             Standard Nuclear Orientation (Angstroms)
    I     Atom           X                Y                Z
 ----------------------------------------------------------------
    1      N       0.0354846971    -0.9850555213    -0.0000000000
    2      N      -1.1754105895     0.9833099726    -0.0000000000
    3      C      -1.2174608195    -0.4055068756    -0.0000000000
    4      C      -0.0081266842     1.7046914842     0.0000000000
    5      C       1.2008430574     1.1100587500     0.0000000000
    6      C       1.2880295062    -0.3490430859     0.0000000000
    7      O       2.3086865939    -1.0035792161     0.0000000000
    8      O      -2.2551819831    -1.0285636235    -0.0000000000
    9      H       0.0489345305    -2.0003501192    -0.0000000000
   10      H      -2.0780448281     1.4394027548    -0.0000000000
   11      H      -0.1250947767     2.7887442137     0.0000000000
   12      H       2.1259390754     1.6803630727     0.0000000000
 ----------------------------------------------------------------
 Molecular Point Group                 Cs    NOp =  2
 Largest Abelian Subgroup              Cs    NOp =  2
 Nuclear Repulsion Energy =         356.75852787 hartrees
 There are       29 alpha and       29 beta electrons
 Requested basis set is 6-31G(d)
 There are 40 shells and 128 basis functions
 WARNING: the default MEM_TOTAL is adjusted according to given MEM_STATIC!
 Total memory of 8192 MB is distributed as follows: 
   MEM_STATIC is set to 192 MB
   QALLOC/CCMAN JOB total memory use is  8000 MB
 Warning: actual memory use might exceed 8192 MB

 Total QAlloc Memory Limit   8192 MB
 Mega-Array Size       188 MB
 MEM_STATIC part       192 MB

                       Distance Matrix (Angstroms)
             N (  1)   N (  2)   C (  3)   C (  4)   C (  5)   C (  6)
   N (  2)  2.311002
   C (  3)  1.380489  1.389453
   C (  4)  2.690101  1.372204  2.432165
   C (  5)  2.397408  2.379632  2.853968  1.347292
   C (  6)  1.404771  2.800661  2.506126  2.428548  1.461704
   O (  7)  2.273277  4.010818  3.576508  3.564036  2.386374  1.212501
   O (  8)  2.291080  2.283318  1.210399  3.538353  4.064211  3.607783
   H (  9)  1.015384  3.225097  2.036488  3.705481  3.316856  2.064503
   H ( 10)  3.216365  1.011321  2.035754  2.086849  3.295387  3.811692
   H ( 11)  3.777215  2.088721  3.375871  1.090345  2.139181  3.441312
   H ( 12)  3.387397  3.374136  3.940708  2.134204  1.086761  2.195582
             O (  7)   O (  8)   H (  9)   H ( 10)   H ( 11)
   O (  8)  4.563937
   H (  9)  2.469824  2.500664
   H ( 10)  5.021113  2.474315  4.044248
   H ( 11)  4.506108  4.371397  4.792255  2.373760
   H ( 12)  2.690157  5.150971  4.226298  4.210884  2.509116

 A cutoff of  1.0D-14 yielded    773 shell pairs
 There are      8286 function pairs
 Smallest overlap matrix eigenvalue = 1.23E-03

 Scale SEOQF with 1.000000e-01/1.000000e-01/1.000000e+00

 Standard Electronic Orientation quadrupole field applied
 Nucleus-field energy     =     0.0000000099 hartrees
 Guess from superposition of atomic densities
 Warning:  Energy on first SCF cycle will be non-variational
 SAD guess density has 58.000000 electrons

 -----------------------------------------------------------------------
  General SCF calculation program by
  Eric Jon Sundstrom, Paul Horn, Yuezhi Mao, Dmitri Zuev, Alec White,
  David Stuck, Shaama M.S., Shane Yost, Joonho Lee, David Small,
  Daniel Levine, Susi Lehtola, Hugh Burton, Evgeny Epifanovsky
 -----------------------------------------------------------------------
 Hartree-Fock
 A restricted SCF calculation will be
 performed using DIIS
 SCF converges when DIIS error is below 1.0e-08
 ---------------------------------------
  Cycle       Energy         DIIS error
 ---------------------------------------
    1    -415.3533433910      7.97e-02  
    2    -412.2260691458      1.10e-02  
    3    -412.3407875324      8.99e-03  
    4    -412.4628642858      1.00e-03  
    5    -412.4665134797      3.65e-04  
    6    -412.4669920631      1.33e-04  
    7    -412.4671190221      6.50e-05  
    8    -412.4671433961      2.44e-05  
    9    -412.4671457447      7.91e-06  
   10    -412.4671459776      2.43e-06  
   11    -412.4671460037      1.08e-06  
   12    -412.4671460096      2.72e-07  
   13    -412.4671460100      1.14e-07  
   14    -412.4671460101      3.39e-08  
   15    -412.4671460101      1.48e-08  
   16    -412.4671460101      4.03e-09  Convergence criterion met
 ---------------------------------------
 SCF time:   CPU 8.81s  wall 9.00s 
 SCF   energy in the final basis set =     -412.4671460101
 Total energy in the final basis set =     -412.4671460101


 ------------------------------------------------------------------------------

   CCMAN2: suite of methods based on coupled cluster
           and equation of motion theories.

   Components:
   * libvmm-1.3-trunk
     by Evgeny Epifanovsky, Ilya Kaliman.
   * libtensor-2.5-trunk
     by Evgeny Epifanovsky, Michael Wormit, Dmitry Zuev, Sam Manzer, 
        Ilya Kaliman.
   * libcc-2.5-trunk
     by Evgeny Epifanovsky, Arik Landau, Tomasz Kus, Kirill Khistyaev, 
        Dmitry Zuev, Prashant Manohar, Xintian Feng, Anna Krylov, 
        Matthew Goldey, Alec White, Thomas Jagau, Kaushik Nanda, 
        Anastasia Gunina, Alexander Kunitsa, Joonho Lee.

   CCMAN original authors:
   Anna I. Krylov, C. David Sherrill, Steven R. Gwaltney,
   Edward F. C. Byrd (2000)
   Sergey V. Levchenko, Lyudmila V. Slipchenko, Tao Wang,
   Ana-Maria C. Cristian (2003)
   Piotr A. Pieniazek, C. Melania Oana, Evgeny Epifanovsky (2007)
   Prashant Manohar (2009)

 ------------------------------------------------------------------------------


 Allocating and initializing 8000MB of RAM...
 Calculation will run on 1 core.


 Alpha MOs, Restricted
 -- Occupied --                  
-20.551 -20.546 -15.647 -15.628 -11.420 -11.381 -11.341 -11.255
  1 A'    2 A'    3 A'    4 A'    5 A'    6 A'    7 A'    8 A'                 
 -1.434  -1.398  -1.308  -1.241  -1.083  -0.926  -0.895  -0.801
  9 A'   10 A'   11 A'   12 A'   13 A'   14 A'   15 A'   16 A'                 
 -0.759  -0.709  -0.671  -0.662  -0.646  -0.610  -0.596  -0.565
 17 A'   18 A'   19 A'    1 A"   20 A'   21 A'   22 A'    2 A"                 
 -0.520  -0.477  -0.441  -0.429  -0.362
  3 A"   23 A'   24 A'    4 A"    5 A"                                         
 -- Virtual --                   
  0.104   0.179   0.191   0.249   0.256   0.298   0.321   0.373
  6 A"    7 A"   25 A'   26 A'   27 A'   28 A'    8 A"   29 A'                 
  0.404   0.422   0.443   0.501   0.534   0.551   0.667   0.692
 30 A'   31 A'   32 A'   33 A'   34 A'   35 A'   36 A'    9 A"                 
  0.714   0.741   0.779   0.782   0.799   0.805   0.869   0.885
 37 A'   38 A'   39 A'   10 A"   40 A'   11 A"   41 A'   12 A"                 
  0.910   0.946   0.984   0.998   1.024   1.062   1.078   1.094
 42 A'   43 A'   13 A"   44 A'   45 A'   46 A'   47 A'   14 A"                 
  1.098   1.113   1.146   1.170   1.230   1.261   1.303   1.315
 48 A'   49 A'   50 A'   51 A'   52 A'   53 A'   15 A"   54 A'                 
  1.331   1.364   1.386   1.431   1.453   1.557   1.591   1.596
 16 A"   55 A'   56 A'   17 A"   57 A'   58 A'   59 A'   18 A"                 
  1.648   1.682   1.687   1.706   1.713   1.717   1.816   1.868
 19 A"   60 A'   20 A"   61 A'   21 A"   22 A"   62 A'   63 A'                 
  2.024   2.047   2.081   2.095   2.097   2.119   2.144   2.206
 64 A'   65 A'   23 A"   24 A"   66 A'   67 A'   68 A'   69 A'                 
  2.270   2.272   2.290   2.311   2.382   2.452   2.480   2.485
 70 A'   25 A"   26 A"   71 A'   72 A'   73 A'   27 A"   74 A'                 
  2.529   2.587   2.629   2.632   2.712   2.877   2.934   2.936
 75 A'   28 A"   29 A"   76 A'   77 A'   78 A'   30 A"   79 A'                 
  2.972   2.977   3.005   3.081   3.135   3.170   3.330   3.354
 80 A'   31 A"   32 A"   81 A'   82 A'   83 A'   84 A'   85 A'                 
  3.365   3.588   3.769   4.324   4.374   4.404   4.553   4.592
 86 A'   87 A'   88 A'   89 A'   90 A'   91 A'   92 A'   93 A'                 
  4.782   4.992   5.074
 94 A'   95 A'   96 A'                                                         

 Beta MOs, Restricted
 -- Occupied --                  
-20.551 -20.546 -15.647 -15.628 -11.420 -11.381 -11.341 -11.255
  1 A'    2 A'    3 A'    4 A'    5 A'    6 A'    7 A'    8 A'                 
 -1.434  -1.398  -1.308  -1.241  -1.083  -0.926  -0.895  -0.801
  9 A'   10 A'   11 A'   12 A'   13 A'   14 A'   15 A'   16 A'                 
 -0.759  -0.709  -0.671  -0.662  -0.646  -0.610  -0.596  -0.565
 17 A'   18 A'   19 A'    1 A"   20 A'   21 A'   22 A'    2 A"                 
 -0.520  -0.477  -0.441  -0.429  -0.362
  3 A"   23 A'   24 A'    4 A"    5 A"                                         
 -- Virtual --                   
  0.104   0.179   0.191   0.249   0.256   0.298   0.321   0.373
  6 A"    7 A"   25 A'   26 A'   27 A'   28 A'    8 A"   29 A'                 
  0.404   0.422   0.443   0.501   0.534   0.551   0.667   0.692
 30 A'   31 A'   32 A'   33 A'   34 A'   35 A'   36 A'    9 A"                 
  0.714   0.741   0.779   0.782   0.799   0.805   0.869   0.885
 37 A'   38 A'   39 A'   10 A"   40 A'   11 A"   41 A'   12 A"                 
  0.910   0.946   0.984   0.998   1.024   1.062   1.078   1.094
 42 A'   43 A'   13 A"   44 A'   45 A'   46 A'   47 A'   14 A"                 
  1.098   1.113   1.146   1.170   1.230   1.261   1.303   1.315
 48 A'   49 A'   50 A'   51 A'   52 A'   53 A'   15 A"   54 A'                 
  1.331   1.364   1.386   1.431   1.453   1.557   1.591   1.596
 16 A"   55 A'   56 A'   17 A"   57 A'   58 A'   59 A'   18 A"                 
  1.648   1.682   1.687   1.706   1.713   1.717   1.816   1.868
 19 A"   60 A'   20 A"   61 A'   21 A"   22 A"   62 A'   63 A'                 
  2.024   2.047   2.081   2.095   2.097   2.119   2.144   2.206
 64 A'   65 A'   23 A"   24 A"   66 A'   67 A'   68 A'   69 A'                 
  2.270   2.272   2.290   2.311   2.382   2.452   2.480   2.485
 70 A'   25 A"   26 A"   71 A'   72 A'   73 A'   27 A"   74 A'                 
  2.529   2.587   2.629   2.632   2.712   2.877   2.934   2.936
 75 A'   28 A"   29 A"   76 A'   77 A'   78 A'   30 A"   79 A'                 
  2.972   2.977   3.005   3.081   3.135   3.170   3.330   3.354
 80 A'   31 A"   32 A"   81 A'   82 A'   83 A'   84 A'   85 A'                 
  3.365   3.588   3.769   4.324   4.374   4.404   4.553   4.592
 86 A'   87 A'   88 A'   89 A'   90 A'   91 A'   92 A'   93 A'                 
  4.782   4.992   5.074
 94 A'   95 A'   96 A'                                                         

 Occupation and symmetry of molecular orbitals

 Point group: Cs (2 irreducible representations).

                           A'   A"    All 
 ------------------------------------------
 All molecular orbitals:
  - Alpha                  96   32    128 
  - Beta                   96   32    128 
 ------------------------------------------
 Alpha orbitals:
  - Frozen occupied        8    0     8   
  - Active occupied        16   5     21  
  - Active virtual         72   27    99  
  - Frozen virtual         0    0     0   
 ------------------------------------------
 Beta orbitals:
  - Frozen occupied        8    0     8   
  - Active occupied        16   5     21  
  - Active virtual         72   27    99  
  - Frozen virtual         0    0     0   
 ------------------------------------------

 Import integrals:   CPU 0.00 s  wall 0.00 s

 Import integrals:   CPU 8.20 s  wall 7.39 s

 MP2 amplitudes:   CPU 0.14 s  wall 0.16 s

Running a double precision version
           CCSD T amplitudes will be solved using DIIS.

           Start     Size      MaxIter   EConv     TConv     
           3         7         100       1.00e-06  1.00e-04  
 ------------------------------------------------------------------------------
           Energy (a.u.)   Ediff      Tdiff       Comment
 ------------------------------------------------------------------------------
          -413.63174320                           
     1    -413.61660831   1.51e-02   9.86e-01     
     2    -413.65461028   3.80e-02   1.30e-01     
     3    -413.65256652   2.04e-03   5.36e-02     
     4    -413.65679048   4.22e-03   2.11e-02     Switched to DIIS steps.
     5    -413.65832076   1.53e-03   1.35e-02     
     6    -413.65843209   1.11e-04   2.85e-03     
     7    -413.65843171   3.77e-07   1.33e-03     
     8    -413.65842710   4.61e-06   3.43e-04     
     9    -413.65842850   1.39e-06   1.62e-04     
    10    -413.65842885   3.48e-07   4.81e-05     
 ------------------------------------------------------------------------------
          -413.65842885                           CCSD T converged.

End of double precision
 SCF energy                 = -412.46714601
 MP2 energy                 = -413.63174320
 CCSD correlation energy    =   -1.19128284
 CCSD total energy          = -413.65842885

 CCSD  T1^2 = 0.0247  T2^2 = 0.3952  Leading amplitudes:

 Amplitude    Orbitals with energies
 -0.0436       2 (A") A                  ->    7 (A") A                   
              -0.5654                          0.1791                     
 -0.0436       2 (A") B                  ->    7 (A") B                   
              -0.5654                          0.1791                     
  0.0383       2 (A") A                  ->    6 (A") A                   
              -0.5654                          0.1043                     
  0.0383       2 (A") B                  ->    6 (A") B                   
              -0.5654                          0.1043                     

 Amplitude    Orbitals with energies
 -0.0762       5 (A") A      5 (A") B    ->    6 (A") A      6 (A") B     
              -0.3620       -0.3620            0.1043        0.1043       
  0.0762       5 (A") A      5 (A") B    ->    6 (A") B      6 (A") A     
              -0.3620       -0.3620            0.1043        0.1043       
  0.0762       5 (A") B      5 (A") A    ->    6 (A") A      6 (A") B     
              -0.3620       -0.3620            0.1043        0.1043       
 -0.0762       5 (A") B      5 (A") A    ->    6 (A") B      6 (A") A     
              -0.3620       -0.3620            0.1043        0.1043       

 Computing CCSD intermediates for later calculations in double precision
 Finished.

Running a double precision version
           CCSD Lambda amplitudes will be solved using DIIS.
           Start     Size      MaxIter   EConv     LConv     
           3         7         100       1.00e-06  1.00e-04  
 ------------------------------------------------------------------------------
            Enorm      Ldiff       Comment
 ------------------------------------------------------------------------------
     1     7.47e-02   3.95e-02     
     2     2.87e-02   9.72e-03     
     3     1.24e-02   1.76e-04     
     4     5.09e-03   1.70e-03     Switched to DIIS steps.
     5     1.45e-03   9.09e-04     
     6     6.13e-04   1.99e-04     
     7     2.15e-04   4.73e-05     
     8     9.12e-05   9.96e-06     
     9     3.72e-05   3.63e-06     
    10     1.62e-05   1.85e-06     
    11     6.84e-06   1.49e-07     
    12     2.39e-06   1.50e-07     
    13     9.88e-07   2.68e-08     
 ------------------------------------------------------------------------------
                                   CCSD Lambda converged.

 CCSD calculation:   CPU 92.11 s  wall 49.22 s

        Solving for CVS-EOMIP-CCSD A' transitions.

Running a double precision version
      CVS-EOMIP-CCSD/MP2 right amplitudes will be solved using Davidson.
        Amplitudes will be solved using standard  algorithm.
     Hard-coded thresholds: 
     LinDepThresh=1.00e-15  NormThresh=1.00e-06  ReorthogonThresh=1.00e-02

      Roots     MaxVec    MaxIter   Precond   Conv      Shift    
      4         120       60        1         1.00e-05  0.00e+00  
 ------------------------------------------------------------------------------
      Iter ConvRoots NVecs ResNorm Current eigenvalues (eV)
 ------------------------------------------------------------------------------
      0    0      4     5.74e-01   305.7602   307.7309   308.8776   309.8606   
      1    0      8     4.66e-01   301.3260   303.3457   304.4728   305.4240   
      2    0      12    8.47e-03   293.1091   295.2522   296.7992   297.8631   
      3    0      16    5.68e-04   292.9483   295.0788   296.6361   297.7044   
      4    0      20    6.78e-05   292.9388   295.0614   296.6188   297.6895   
      5    4      24    7.84e-06   292.9372*  295.0579*  296.6156*  297.6867*  

     Davidson procedure converged

 EOMIP transition 1/A'
 Total energy = -402.89318479 a.u.  Excitation energy = 292.9372 eV.
 R1^2 = 0.8942  R2_CCVV^2 = 0.0013  R2_COVV^2 = 0.1051  Res^2 = 3.36e-06
 Conv-d = yes

 Amplitude    Transitions between orbitals
 -0.9456       8 (A') A                  ->    infty        
 -0.0020       7 (A') A                  ->    infty        
  0.0004       6 (A') A                  ->    infty        

              Summary of significant orbitals:

               Number  Type             Irrep      Energy
               6       Occ  Alpha       6 (A')    -11.3807
               7       Occ  Alpha       7 (A')    -11.3409
               8       Occ  Alpha       8 (A')    -11.2555


 EOMIP transition 2/A'
 Total energy = -402.81524911 a.u.  Excitation energy = 295.0579 eV.
 R1^2 = 0.8909  R2_CCVV^2 = 0.0013  R2_COVV^2 = 0.1084  Res^2 = 9.51e-06
 Conv-d = yes

 Amplitude    Transitions between orbitals
  0.9439       7 (A') A                  ->    infty        
 -0.0020       8 (A') A                  ->    infty        

              Summary of significant orbitals:

               Number  Type             Irrep      Energy
               7       Occ  Alpha       7 (A')    -11.3409
               8       Occ  Alpha       8 (A')    -11.2555


 EOMIP transition 3/A'
 Total energy = -402.75800703 a.u.  Excitation energy = 296.6156 eV.
 R1^2 = 0.8967  R2_CCVV^2 = 0.0013  R2_COVV^2 = 0.1026  Res^2 = 8.78e-06
 Conv-d = yes

 Amplitude    Transitions between orbitals
 -0.9470       6 (A') A                  ->    infty        
 -0.0004       8 (A') A                  ->    infty        

              Summary of significant orbitals:

               Number  Type             Irrep      Energy
               6       Occ  Alpha       6 (A')    -11.3807
               8       Occ  Alpha       8 (A')    -11.2555


 EOMIP transition 4/A'
 Total energy = -402.71864463 a.u.  Excitation energy = 297.6867 eV.
 R1^2 = 0.8975  R2_CCVV^2 = 0.0013  R2_COVV^2 = 0.1019  Res^2 = 9.72e-06
 Conv-d = yes

 Amplitude    Transitions between orbitals
  0.9474       5 (A') A                  ->    infty        

              Summary of significant orbitals:

               Number  Type             Irrep      Energy
               5       Occ  Alpha       5 (A')    -11.4199


Running a double precision version
      CVS-EOMIP-CCSD/MP2 left amplitudes will be solved using Davidson.
        Amplitudes will be solved using MOM  algorithm.
     Hard-coded thresholds: 
     LinDepThresh=1.00e-15  NormThresh=1.00e-06  ReorthogonThresh=1.00e-02

      Roots     MaxVec    MaxIter   Precond   Conv      Shift    
      4         120       60        1         1.00e-05  0.00e+00  
 ------------------------------------------------------------------------------
      Iter ConvRoots NVecs ResNorm Current eigenvalues (eV)
 ------------------------------------------------------------------------------
      0    0      4     1.41e-02   293.8742   295.9055   297.3442   298.3768   
      1    0      8     2.49e-03   292.9424   295.0701   296.6323   297.7091   
      2    0      12    2.01e-04   292.9436   295.0665   296.6217   297.6916   
      3    1      16    1.60e-05   292.9372*  295.0579   296.6151   297.6871   
      4    4      19    4.03e-06   292.9372*  295.0578*  296.6152*  297.6865*  

     Davidson procedure converged

 CVS-EOMIP-CCSD calculation:   CPU 5.52 s  wall 5.01 s


 Reference -- EOM-IP-CCSD state  1/A'   transition
 Energy difference = 292.9372 eV.

 Left Dyson orbital norm is 0.923910

Left alpha Dyson orbital in the MO basis (canonical Q-Chem's ordering):
0     -7.4562e-08
1     8.4251e-07
2     2.6253e-06
3     -1.5628e-06
4     -2.2142e-05
5     4.2874e-04
6     -2.2034e-03
7     -1.0000e+00
8     6.8088e-17
9     1.5613e-16
10    -5.8032e-17
11    6.2146e-16
12    -1.4398e-16
13    -5.7896e-16
14    2.2096e-16
15    -1.5959e-16
16    -8.5435e-17
17    8.2833e-17
18    2.9317e-16
19    -1.0718e-16
20    -3.4640e-16
21    -1.0823e-15
22    -5.4687e-16
23    -8.8395e-17
24    -1.2220e-16
25    5.5587e-16
26    -4.2869e-16
27    1.4488e-16
28    3.6479e-16
29    -2.9933e-17
30    3.3926e-16
31    1.0907e-16
32    7.4290e-16
33    6.1800e-16
34    1.5266e-15
35    -1.3679e-16
36    -8.5912e-16
37    -7.3706e-16
38    -1.9082e-16
39    1.3827e-15
40    -5.2063e-16
41    8.0535e-16
42    3.6516e-16
43    -7.8756e-16
44    -4.7124e-16
45    -3.5150e-16
46    -3.2678e-16
47    8.0469e-16
48    -3.0405e-16
49    1.0061e-15
50    3.8600e-16
51    4.4398e-16
52    1.7130e-16
53    -7.1015e-17
54    3.8229e-16
55    -4.4425e-16
56    -8.0773e-16
57    1.6133e-16
58    1.2589e-15
59    -1.4166e-15
60    -5.9619e-16
61    -1.5331e-16
62    -3.5518e-16
63    -3.8440e-16
64    -2.9249e-16
65    -8.9143e-16
66    3.7036e-16
67    2.0949e-16
68    8.0231e-17
69    -2.6965e-16
70    1.0068e-15
71    6.4315e-16
72    -8.7602e-16
73    -4.1980e-16
74    -5.4004e-16
75    -1.2544e-15
76    1.4081e-16
77    1.3016e-16
78    6.1149e-16
79    1.6788e-16
80    -3.0168e-16
81    -2.7162e-17
82    -4.1152e-16
83    7.7520e-16
84    -9.2450e-16
85    9.6239e-16
86    2.1034e-16
87    1.2132e-16
88    -2.4318e-16
89    -2.3820e-16
90    8.9013e-17
91    -2.1467e-16
92    5.5967e-16
93    -2.5793e-16
94    2.9795e-16
95    -5.0915e-16
96    -4.6751e-16
97    5.1706e-16
98    -3.3610e-16
99    4.4368e-17
100   -4.7468e-16
101   4.3542e-16
102   -2.7002e-16
103   -1.0356e-16
104   5.0730e-16
105   4.9754e-16
106   -8.5798e-16
107   8.8441e-17
108   3.2526e-16
109   -4.7022e-16
110   -6.3855e-16
111   7.7222e-16
112   1.5439e-16
113   -2.8496e-16
114   2.3327e-16
115   4.3846e-16
116   -2.7285e-16
117   7.6022e-16
118   7.3051e-16
119   -4.2243e-16
120   2.8791e-16
121   -1.0627e-15
122   9.8104e-16
123   -8.2475e-16
124   -1.7077e-15
125   1.5924e-15
126   5.0082e-16
127   1.4548e-15

Decomposition over AOs for the left alpha Dyson orbital:
5.72497290e-05
8.90713386e-05
-7.72138067e-06
1.85750290e-05
6.95928232e-16
-2.19058584e-03
-1.28851409e-04
-8.42059420e-04
-1.00907470e-15
1.49047637e-04
2.88542686e-05
1.86650552e-04
-1.04933977e-16
-1.33029160e-16
6.17074308e-05
7.79102338e-05
1.62981846e-04
4.26870019e-05
-4.86052230e-06
-1.02444965e-16
-2.76362856e-03
-1.14416010e-03
2.68996306e-04
-3.81442240e-16
2.54737141e-04
4.36863032e-06
1.52522297e-04
-1.98248901e-16
8.35357134e-17
9.77406302e-05
3.77108204e-05
-6.20581963e-05
1.22329383e-05
2.63514695e-05
9.24629481e-16
7.92115684e-04
1.33615956e-03
7.87936712e-04
-1.17598064e-16
-9.38165145e-06
9.91341861e-06
-5.90565068e-06
-6.36495554e-16
3.38911594e-16
-3.36090728e-05
-1.15200539e-02
-6.14442958e-04
-2.15975963e-04
1.28919758e-04
2.53210742e-16
6.88410949e-03
1.31831151e-03
-2.75789967e-03
2.33679975e-17
-4.14027879e-04
4.17324052e-05
-2.59445970e-04
4.11443585e-16
-8.63763719e-17
-8.60416569e-05
9.95543383e-01
2.82605744e-02
-5.16381738e-04
-2.78961283e-04
1.87789537e-16
-1.53782719e-02
2.93280723e-03
2.00198675e-03
-7.88457978e-17
-1.70687229e-03
-1.87573667e-04
-1.83904088e-03
-2.86192352e-16
-3.42134220e-16
-2.36930508e-03
-3.83036018e-03
-1.26238323e-04
-4.55096706e-05
-9.90308666e-05
-3.99953506e-16
5.80399868e-03
-1.31430377e-03
2.31136848e-03
7.46040049e-16
-2.67081017e-04
-1.53580256e-05
-6.25599435e-04
-1.75077839e-17
-8.53176515e-16
-1.54371069e-04
5.12764877e-07
-7.73779002e-05
-2.59911790e-05
-6.28359043e-06
-3.17769416e-16
2.68268156e-04
-6.02261584e-05
-1.37276863e-04
-2.87107592e-16
5.22237860e-05
-8.96571860e-06
3.62534649e-05
2.21472095e-16
5.34810480e-17
-7.92685870e-05
-4.30668535e-05
-1.94318885e-04
-1.41497761e-05
-7.00613665e-06
-3.30086453e-16
1.28332868e-03
2.38171229e-04
1.41206127e-04
6.67256016e-17
-1.12115336e-04
7.83234384e-06
-1.17647595e-04
-4.80049243e-16
-1.46683836e-16
-1.19974810e-04
-5.53808655e-05
4.36200609e-05
-7.37724725e-05
-2.61147971e-05
1.53620802e-05
4.43164155e-04
-2.22237749e-04
1.04828367e-03
   *****

 Right Dyson orbital norm is 0.949067

Right alpha Dyson orbital in the MO basis (canonical Q-Chem's ordering):
0     -8.0158e-08
1     7.4211e-07
2     2.4325e-06
3     -1.3950e-06
4     -1.7854e-05
5     4.8842e-04
6     -2.2031e-03
7     -1.0000e+00
8     6.7654e-17
9     1.5764e-16
10    -5.7869e-17
11    6.2060e-16
12    -1.4745e-16
13    -5.8027e-16
14    2.2118e-16
15    -1.5699e-16
16    -8.5218e-17
17    8.2399e-17
18    2.9360e-16
19    -1.0719e-16
20    -3.4575e-16
21    -1.0830e-15
22    -5.4774e-16
23    -8.8420e-17
24    -1.2222e-16
25    5.5576e-16
26    -4.2934e-16
27    1.4488e-16
28    3.6478e-16
29    -2.9927e-17
30    3.3925e-16
31    1.0885e-16
32    7.4224e-16
33    6.1800e-16
34    1.5274e-15
35    -1.3680e-16
36    -8.5782e-16
37    -7.3695e-16
38    -1.8995e-16
39    1.3826e-15
40    -5.2020e-16
41    8.0448e-16
42    3.6342e-16
43    -7.8670e-16
44    -4.7121e-16
45    -3.5215e-16
46    -3.2689e-16
47    8.0469e-16
48    -3.0403e-16
49    1.0048e-15
50    3.8600e-16
51    4.4409e-16
52    1.7129e-16
53    -7.1124e-17
54    3.8186e-16
55    -4.4425e-16
56    -8.0741e-16
57    1.6176e-16
58    1.2588e-15
59    -1.4171e-15
60    -5.9621e-16
61    -1.5320e-16
62    -3.5605e-16
63    -3.8425e-16
64    -2.9244e-16
65    -8.9035e-16
66    3.6950e-16
67    2.0947e-16
68    7.8930e-17
69    -2.6964e-16
70    1.0066e-15
71    6.4358e-16
72    -8.7598e-16
73    -4.1959e-16
74    -5.3974e-16
75    -1.2547e-15
76    1.4081e-16
77    1.3016e-16
78    6.0976e-16
79    1.6788e-16
80    -3.0146e-16
81    -2.7169e-17
82    -4.1152e-16
83    7.7477e-16
84    -9.2450e-16
85    9.6245e-16
86    2.1044e-16
87    1.2130e-16
88    -2.4318e-16
89    -2.3842e-16
90    8.9013e-17
91    -2.1467e-16
92    5.5961e-16
93    -2.5847e-16
94    2.9794e-16
95    -5.0914e-16
96    -4.6707e-16
97    5.1706e-16
98    -3.3610e-16
99    4.4368e-17
100   -4.7469e-16
101   4.3514e-16
102   -2.7001e-16
103   -1.0356e-16
104   5.0697e-16
105   4.9751e-16
106   -8.5787e-16
107   8.8430e-17
108   3.2531e-16
109   -4.7022e-16
110   -6.3854e-16
111   7.7219e-16
112   1.5455e-16
113   -2.8493e-16
114   2.3365e-16
115   4.3846e-16
116   -2.7285e-16
117   7.6003e-16
118   7.3066e-16
119   -4.2246e-16
120   2.8796e-16
121   -1.0631e-15
122   9.8072e-16
123   -8.2497e-16
124   -1.7081e-15
125   1.5924e-15
126   5.0071e-16
127   1.4548e-15

Decomposition over AOs for the right alpha Dyson orbital:
5.70990257e-05
8.90510245e-05
-7.73244775e-06
1.85761395e-05
6.95933921e-16
-2.19066800e-03
-1.28680291e-04
-8.42066759e-04
-1.00910310e-15
1.49096643e-04
2.88731054e-05
1.86667836e-04
-1.04938334e-16
-1.33030213e-16
6.17051332e-05
7.77170917e-05
1.62966196e-04
4.26896647e-05
-4.85982461e-06
-1.02437830e-16
-2.76350117e-03
-1.14415335e-03
2.68910830e-04
-3.81459019e-16
2.54734332e-04
4.36532469e-06
1.52524614e-04
-1.98239531e-16
8.35415962e-17
9.77380982e-05
3.34270035e-05
-6.21394072e-05
1.22400416e-05
2.63465361e-05
9.24600847e-16
7.92169809e-04
1.33608027e-03
7.87724800e-04
-1.17539022e-16
-9.37222389e-06
9.91555760e-06
-5.89660399e-06
-6.36481124e-16
3.38898315e-16
-3.35860499e-05
-1.15196634e-02
-6.14417843e-04
-2.15970079e-04
1.28914398e-04
2.53196695e-16
6.88414276e-03
1.31827450e-03
-2.75788192e-03
2.33699562e-17
-4.14031468e-04
4.17347956e-05
-2.59452530e-04
4.11431673e-16
-8.63776868e-17
-8.60369482e-05
9.95543183e-01
2.82605751e-02
-5.16387826e-04
-2.78966006e-04
1.87772851e-16
-1.53786172e-02
2.93286960e-03
2.00217078e-03
-7.88708053e-17
-1.70685768e-03
-1.87576853e-04
-1.83900820e-03
-2.86195610e-16
-3.42120817e-16
-2.36929338e-03
-3.88978921e-03
-1.27819848e-04
-4.54760207e-05
-9.89997957e-05
-3.99965735e-16
5.80438373e-03
-1.31453100e-03
2.31174626e-03
7.46074805e-16
-2.67043603e-04
-1.53371105e-05
-6.25535063e-04
-1.75068578e-17
-8.53140157e-16
-1.54236836e-04
4.23799308e-07
-7.74470303e-05
-2.59727772e-05
-6.29284162e-06
-3.17773382e-16
2.68656261e-04
-6.03729433e-05
-1.37229441e-04
-2.87131867e-16
5.22086163e-05
-8.96708503e-06
3.62193317e-05
2.21466246e-16
5.34707170e-17
-7.93088657e-05
-4.30642712e-05
-1.94291437e-04
-1.41509537e-05
-7.00755100e-06
-3.30067849e-16
1.28313247e-03
2.38122037e-04
1.41203019e-04
6.67113987e-17
-1.12102065e-04
7.82980307e-06
-1.17626699e-04
-4.80029931e-16
-1.46689548e-16
-1.19958568e-04
-5.53794793e-05
4.36163372e-05
-7.37725657e-05
-2.61085876e-05
1.53602069e-05
4.43140330e-04
-2.22237188e-04
1.04825037e-03
   *****

     End transition


 Reference -- EOM-IP-CCSD state  2/A'   transition
 Energy difference = 295.0579 eV.

 Left Dyson orbital norm is 0.923122

Left alpha Dyson orbital in the MO basis (canonical Q-Chem's ordering):
0     -1.9353e-07
1     -7.3457e-09
2     -2.6420e-05
3     -7.2738e-07
4     -4.8411e-05
5     -3.4549e-05
6     1.0000e+00
7     -2.0592e-03
8     1.9863e-16
9     8.4655e-16
10    -5.0827e-16
11    2.2714e-16
12    -4.3195e-16
13    1.7087e-16
14    -7.0213e-16
15    1.8475e-16
16    7.4593e-17
17    8.2838e-16
18    5.9870e-16
19    2.1804e-16
20    -1.1620e-15
21    -8.9056e-16
22    1.6697e-17
23    9.9359e-17
24    -3.0385e-16
25    -2.7279e-16
26    -4.6512e-17
27    3.8433e-16
28    3.8882e-16
29    8.8497e-17
30    7.0992e-16
31    -3.2396e-16
32    3.4911e-17
33    4.8702e-16
34    3.8771e-16
35    -4.2796e-17
36    2.2161e-16
37    -1.1681e-15
38    -1.7703e-15
39    1.9949e-16
40    -5.7750e-16
41    -1.8182e-15
42    -9.7795e-17
43    8.9392e-17
44    -8.5200e-16
45    6.2190e-16
46    5.8482e-16
47    -7.6436e-16
48    -6.1202e-16
49    2.9707e-16
50    2.5317e-16
51    -5.3213e-16
52    8.2269e-17
53    9.5016e-16
54    7.4593e-16
55    -9.8853e-16
56    2.7658e-16
57    -3.3155e-16
58    1.1636e-15
59    6.4911e-16
60    -1.3177e-15
61    2.8146e-16
62    -1.3154e-15
63    -6.5182e-16
64    5.2952e-16
65    1.0891e-16
66    5.7701e-16
67    1.2580e-15
68    -3.1247e-16
69    -1.0054e-15
70    1.9576e-15
71    2.5717e-16
72    -3.3954e-16
73    6.1210e-16
74    1.0683e-15
75    3.6321e-17
76    8.6960e-17
77    -1.1549e-16
78    1.3002e-15
79    1.3663e-17
80    -1.1477e-15
81    1.0278e-16
82    -3.7584e-16
83    -1.0048e-15
84    -3.4217e-16
85    2.0226e-15
86    -3.6104e-16
87    -1.6791e-16
88    -5.5110e-16
89    -7.9827e-16
90    -4.3585e-17
91    3.8245e-16
92    1.2377e-15
93    -9.5061e-16
94    1.2096e-15
95    -9.7926e-16
96    1.9558e-16
97    -3.6635e-16
98    1.7087e-16
99    4.2896e-16
100   -4.7401e-16
101   1.5765e-17
102   -2.8906e-16
103   -2.9972e-16
104   -6.0146e-16
105   1.1860e-15
106   -1.1595e-15
107   4.2616e-16
108   -2.1245e-16
109   9.2475e-16
110   -1.3091e-15
111   2.0080e-15
112   -2.2469e-16
113   5.5869e-16
114   3.6145e-16
115   5.6511e-16
116   -3.5779e-17
117   -9.0856e-17
118   2.2589e-16
119   -1.1698e-15
120   -7.7423e-16
121   -1.3663e-15
122   1.2691e-16
123   1.4230e-16
124   -1.9968e-16
125   -7.9526e-17
126   1.1063e-16
127   1.5542e-15

Decomposition over AOs for the left alpha Dyson orbital:
6.97967971e-05
2.59697836e-04
-1.25613386e-05
1.18405872e-05
1.76580572e-15
-3.26192769e-03
1.17839199e-03
-1.20706518e-03
-1.50078383e-15
1.00687314e-04
6.65133712e-05
1.34213302e-04
-4.33902389e-16
1.24747101e-16
1.19525613e-04
-2.77076283e-04
4.01971280e-04
8.28775228e-05
4.20678310e-05
-1.23786378e-16
-6.53047496e-04
-2.69748708e-03
-7.35268633e-04
-7.07984609e-16
-5.90373283e-04
-4.18856106e-04
-3.67101484e-04
-4.09993539e-16
5.86436745e-16
1.44668189e-04
1.25248036e-04
-4.01919913e-04
2.72335644e-06
-5.90930764e-06
1.84751854e-15
9.68768428e-04
4.34061464e-03
3.39712259e-04
-4.24713873e-16
4.12534811e-05
3.72707623e-05
1.29223737e-04
-1.24140317e-15
6.18392685e-16
-1.27396173e-04
9.95634496e-01
2.70319934e-02
-9.85445976e-04
-6.60240108e-04
1.72925159e-16
-8.75200891e-03
-2.05010507e-03
-3.44089856e-04
1.81563462e-16
-1.16987207e-03
1.40347507e-04
-1.59534085e-03
2.57424049e-16
-2.12429256e-16
-2.43801399e-03
1.07593412e-02
9.55115870e-05
1.36233827e-04
-7.70419854e-05
3.89602625e-16
2.92418585e-03
-1.21226294e-03
1.89780233e-03
2.30707172e-16
-2.07749849e-04
-1.35093923e-05
-3.40538328e-04
-4.55034012e-17
-1.43177495e-15
-6.40574670e-05
-2.44178469e-05
-1.89481435e-04
-3.38941398e-05
-2.87003506e-05
-1.76041232e-16
9.15063404e-04
-4.22047735e-04
1.11606534e-03
5.60083098e-16
5.37535982e-05
-9.62026277e-05
1.32228553e-04
4.00375385e-16
-1.59248778e-15
-2.40563932e-05
-2.76127066e-05
-1.21730645e-04
2.24159260e-05
-1.53961650e-05
-4.30980194e-16
7.19859843e-04
-9.08894916e-05
4.59839652e-05
-1.72175761e-16
-1.20324114e-04
1.60007121e-05
-6.04467741e-05
6.21969315e-16
-2.13605332e-16
-7.00825042e-05
-1.10841411e-04
-4.87031965e-04
-2.24643864e-05
-1.18159241e-05
-1.52153822e-15
3.43171574e-03
4.32206897e-04
6.11200777e-04
1.13043443e-15
-3.49839241e-04
2.30866373e-05
-2.86124483e-04
-9.78157455e-16
-1.08516623e-15
-2.65331878e-04
-5.50827380e-05
-1.04168678e-04
-2.88589927e-04
-4.41102989e-04
-1.66693393e-04
1.92461045e-03
-1.08443428e-04
-2.49095650e-04
   *****

 Right Dyson orbital norm is 0.954258

Right alpha Dyson orbital in the MO basis (canonical Q-Chem's ordering):
0     -1.6328e-07
1     1.4155e-08
2     -2.3835e-05
3     -7.3885e-07
4     -4.7258e-05
5     -3.7919e-05
6     1.0000e+00
7     -2.0517e-03
8     2.0036e-16
9     8.4720e-16
10    -5.0741e-16
11    2.2812e-16
12    -4.3889e-16
13    1.7174e-16
14    -7.0256e-16
15    1.8301e-16
16    7.5894e-17
17    8.2795e-16
18    5.9935e-16
19    2.1804e-16
20    -1.1618e-15
21    -8.9078e-16
22    1.7347e-17
23    9.9362e-17
24    -3.0385e-16
25    -2.7235e-16
26    -4.6838e-17
27    3.8432e-16
28    3.8882e-16
29    8.8497e-17
30    7.0993e-16
31    -3.2396e-16
32    3.5996e-17
33    4.8659e-16
34    3.8684e-16
35    -4.2795e-17
36    2.2204e-16
37    -1.1675e-15
38    -1.7707e-15
39    1.9863e-16
40    -5.7739e-16
41    -1.8182e-15
42    -9.6277e-17
43    8.9257e-17
44    -8.5200e-16
45    6.2797e-16
46    5.8504e-16
47    -7.6480e-16
48    -6.1202e-16
49    2.9967e-16
50    2.5316e-16
51    -5.3218e-16
52    8.2268e-17
53    9.5023e-16
54    7.4712e-16
55    -9.8853e-16
56    2.7680e-16
57    -3.3220e-16
58    1.1627e-15
59    6.4890e-16
60    -1.3177e-15
61    2.7886e-16
62    -1.3147e-15
63    -6.5269e-16
64    5.3126e-16
65    1.0912e-16
66    5.7658e-16
67    1.2580e-15
68    -3.1268e-16
69    -1.0054e-15
70    1.9581e-15
71    2.5696e-16
72    -3.3953e-16
73    6.1203e-16
74    1.0683e-15
75    3.6294e-17
76    8.6959e-17
77    -1.1549e-16
78    1.2995e-15
79    1.3662e-17
80    -1.1481e-15
81    1.0278e-16
82    -3.7584e-16
83    -1.0053e-15
84    -3.4228e-16
85    2.0224e-15
86    -3.6071e-16
87    -1.6791e-16
88    -5.5110e-16
89    -7.9816e-16
90    -4.3693e-17
91    3.8267e-16
92    1.2383e-15
93    -9.5049e-16
94    1.2096e-15
95    -9.7926e-16
96    1.9559e-16
97    -3.6635e-16
98    1.7120e-16
99    4.2896e-16
100   -4.7401e-16
101   1.5928e-17
102   -2.8906e-16
103   -2.9972e-16
104   -6.0130e-16
105   1.1856e-15
106   -1.1596e-15
107   4.2616e-16
108   -2.1250e-16
109   9.2473e-16
110   -1.3091e-15
111   2.0080e-15
112   -2.2469e-16
113   5.5861e-16
114   3.6145e-16
115   5.6525e-16
116   -3.5996e-17
117   -9.0910e-17
118   2.2599e-16
119   -1.1696e-15
120   -7.7466e-16
121   -1.3664e-15
122   1.2707e-16
123   1.4219e-16
124   -1.9962e-16
125   -7.9364e-17
126   1.1065e-16
127   1.5542e-15

Decomposition over AOs for the right alpha Dyson orbital:
6.98058268e-05
2.59698007e-04
-1.25603986e-05
1.18403650e-05
1.76580332e-15
-3.26190904e-03
1.17838048e-03
-1.20705928e-03
-1.50077908e-15
1.00684416e-04
6.65117826e-05
1.34211346e-04
-4.33902259e-16
1.24747957e-16
1.19525148e-04
-2.74503918e-04
4.02036109e-04
8.28776716e-05
4.20677837e-05
-1.23785977e-16
-6.53044876e-04
-2.69748138e-03
-7.35265117e-04
-7.07983495e-16
-5.90383717e-04
-4.18855820e-04
-3.67110694e-04
-4.09993196e-16
5.86437622e-16
1.44658805e-04
1.24100461e-04
-4.01950680e-04
2.72213182e-06
-5.90907101e-06
1.84751613e-15
9.68766912e-04
4.34061620e-03
3.39726389e-04
-4.24713420e-16
4.12537229e-05
3.72701678e-05
1.29224320e-04
-1.24140184e-15
6.18391273e-16
-1.27394137e-04
9.95634582e-01
2.70319984e-02
-9.85445246e-04
-6.60241288e-04
1.72924367e-16
-8.75206188e-03
-2.05011555e-03
-3.44068907e-04
1.81563748e-16
-1.16986930e-03
1.40346899e-04
-1.59533882e-03
2.57421538e-16
-2.12429214e-16
-2.43801359e-03
1.07518717e-02
9.52990687e-05
1.36237997e-04
-7.70397696e-05
3.89603258e-16
2.92432502e-03
-1.21229013e-03
1.89777661e-03
2.30708698e-16
-2.07737750e-04
-1.35077838e-05
-3.40526220e-04
-4.55006519e-17
-1.43177601e-15
-6.40403284e-05
-2.10354720e-05
-1.89390473e-04
-3.38959585e-05
-2.87013784e-05
-1.76037567e-16
9.14998874e-04
-4.22022058e-04
1.11602298e-03
5.60076494e-16
5.37536093e-05
-9.62037402e-05
1.32229790e-04
4.00375925e-16
-1.59248755e-15
-2.40625134e-05
-2.75917927e-05
-1.21725202e-04
2.24150889e-05
-1.53955778e-05
-4.30978355e-16
7.19831393e-04
-9.08797836e-05
4.59818881e-05
-1.72171561e-16
-1.20323370e-04
1.60009254e-05
-6.04447682e-05
6.21970015e-16
-2.13604971e-16
-7.00793767e-05
-1.10811244e-04
-4.87033250e-04
-2.24647116e-05
-1.18160532e-05
-1.52153960e-15
3.43172781e-03
4.32211528e-04
6.11201093e-04
1.13043356e-15
-3.49839904e-04
2.30866827e-05
-2.86125831e-04
-9.78157559e-16
-1.08516678e-15
-2.65333146e-04
-5.50825044e-05
-1.04168828e-04
-2.88588757e-04
-4.41102863e-04
-1.66693673e-04
1.92460753e-03
-1.08441819e-04
-2.49101364e-04
   *****

     End transition


 Reference -- EOM-IP-CCSD state  3/A'   transition
 Energy difference = 296.6156 eV.

 Left Dyson orbital norm is 0.930051

Left alpha Dyson orbital in the MO basis (canonical Q-Chem's ordering):
0     -1.7614e-07
1     -1.8154e-05
2     7.7437e-07
3     2.7302e-05
4     -5.6335e-05
5     -1.0000e+00
6     -3.9130e-05
7     -4.1906e-04
8     -1.6914e-16
9     4.9613e-16
10    8.5001e-17
11    -4.7271e-16
12    -2.9425e-16
13    4.1644e-16
14    3.0791e-16
15    -3.5562e-16
16    6.2884e-18
17    -6.0282e-17
18    -2.4893e-16
19    2.9666e-17
20    -4.9413e-16
21    -2.4069e-16
22    3.0011e-16
23    4.2857e-16
24    3.4312e-16
25    6.7654e-17
26    2.7082e-16
27    -9.5358e-17
28    1.8372e-16
29    -8.9037e-17
30    1.2699e-16
31    9.4206e-16
32    6.0065e-17
33    1.9364e-16
34    1.0766e-16
35    6.1184e-17
36    4.3281e-16
37    -1.0296e-15
38    9.6147e-16
39    -8.3397e-16
40    -5.4340e-16
41    9.0249e-16
42    6.4163e-16
43    4.5753e-16
44    -3.7249e-16
45    2.8796e-16
46    -4.7228e-16
47    -1.9212e-16
48    -2.5613e-16
49    -3.1810e-16
50    3.1758e-17
51    1.0511e-15
52    1.0656e-16
53    8.5478e-16
54    9.7318e-16
55    -2.0424e-18
56    -3.3610e-16
57    4.3368e-19
58    1.2379e-15
59    3.3350e-16
60    2.6412e-16
61    3.6375e-16
62    -8.2519e-16
63    -8.3093e-16
64    -1.5873e-16
65    -3.1892e-16
66    -2.1185e-16
67    2.8578e-16
68    3.0618e-16
69    -8.2848e-17
70    -2.9107e-16
71    -2.9913e-16
72    -6.7823e-16
73    -1.3487e-16
74    -3.6494e-16
75    4.9841e-16
76    2.7346e-17
77    1.4215e-16
78    -3.0097e-16
79    -7.4449e-18
80    8.8434e-16
81    1.0560e-16
82    4.9620e-17
83    2.7495e-16
84    -8.8081e-16
85    -1.1029e-15
86    9.9350e-17
87    2.9079e-16
88    2.1623e-17
89    1.0273e-15
90    -4.0354e-16
91    -3.0111e-16
92    -1.2338e-16
93    -1.3605e-16
94    2.4225e-16
95    -1.9767e-16
96    1.0831e-16
97    5.6379e-17
98    6.4076e-16
99    -1.6736e-17
100   -2.6140e-16
101   1.2670e-15
102   -2.5592e-16
103   2.0762e-17
104   1.0710e-15
105   3.4488e-16
106   4.9694e-16
107   1.7966e-16
108   3.8758e-16
109   4.0525e-16
110   -2.3422e-16
111   4.3631e-16
112   -2.8379e-16
113   -3.5345e-17
114   -4.3195e-16
115   2.9469e-16
116   -1.4799e-16
117   2.6064e-16
118   -4.0284e-16
119   5.8750e-16
120   -6.6191e-17
121   -3.5963e-16
122   1.1466e-15
123   -5.4942e-16
124   -1.1315e-15
125   4.7384e-16
126   6.6414e-16
127   -7.2137e-16

Decomposition over AOs for the left alpha Dyson orbital:
-2.79297935e-04
2.49280419e-04
1.92061701e-04
-1.96166888e-05
-1.21397012e-16
1.35232914e-03
-2.96181242e-03
1.72318754e-04
4.67518137e-16
-7.67422719e-04
-3.33524027e-04
-2.62376209e-04
7.77497743e-17
8.86593166e-18
4.29291140e-05
3.63466254e-05
1.54792242e-04
-4.33710411e-05
-6.06026911e-06
-1.04049125e-16
-2.10438005e-03
-9.62621373e-05
1.34494639e-03
2.51428342e-16
6.38696105e-05
5.78274266e-05
2.04857468e-05
-1.62161297e-16
-1.36583627e-16
4.45813565e-05
2.80859204e-04
-5.11250994e-04
-1.61132371e-04
5.48315086e-05
4.51526235e-16
-7.40566937e-04
1.60737483e-03
3.71621269e-03
-9.41354362e-16
-1.13906357e-04
-6.05354912e-05
-8.03945639e-05
-2.21970930e-16
2.16537742e-16
-2.18089679e-04
-5.10070604e-05
-2.04815333e-04
-1.07413172e-04
7.45278219e-05
2.30239458e-16
-9.20417352e-04
5.04797676e-04
-9.80658053e-06
-3.36553678e-17
4.61300212e-05
-4.18970017e-05
9.32218868e-05
2.13691771e-16
3.01863761e-17
-7.93819887e-05
3.38853876e-03
-3.46207227e-05
9.60694217e-05
7.47393375e-05
2.73819019e-16
6.29340056e-03
-1.28726064e-03
-3.20652898e-03
3.72009303e-16
-2.39703602e-04
5.53110977e-05
-5.47901389e-04
4.28450850e-17
-1.52496284e-16
-2.00897434e-04
9.95891366e-01
2.65444864e-02
-5.72537722e-04
-5.20636474e-04
2.02318394e-16
-6.58830132e-03
4.04545809e-03
-6.59953515e-03
-5.35761055e-16
-6.20144590e-04
-3.54403868e-04
-1.07087529e-03
-3.61150571e-17
-5.83177216e-16
-2.23257580e-03
-1.92017060e-04
1.16164931e-03
-3.05863165e-04
1.53262926e-04
8.72822719e-17
-6.79399882e-03
2.51790686e-03
-8.13349803e-04
4.08158524e-16
2.81198012e-04
2.54186549e-05
6.05062365e-04
7.27202497e-17
1.69892758e-16
7.03444885e-04
-1.22299141e-04
-5.35991056e-04
-3.85831909e-06
9.97989406e-06
-2.82102270e-16
3.70845281e-03
9.71053589e-04
1.41646968e-04
1.89373169e-16
-2.51763203e-04
4.59038310e-05
-3.80008566e-04
-2.74271533e-16
1.32982985e-16
-3.14948032e-04
-1.68908005e-05
6.08461572e-05
4.57487048e-06
-9.82051344e-05
1.50499133e-05
3.07742332e-04
-4.29768054e-06
6.19095981e-04
   *****

 Right Dyson orbital norm is 0.955060

Right alpha Dyson orbital in the MO basis (canonical Q-Chem's ordering):
0     -1.3911e-07
1     -1.7334e-05
2     7.9799e-07
3     2.4758e-05
4     -5.5894e-05
5     -1.0000e+00
6     -3.5406e-05
7     -3.5213e-04
8     -1.6914e-16
9     4.8746e-16
10    8.4568e-17
11    -4.7184e-16
12    -2.9404e-16
13    4.1590e-16
14    3.1225e-16
15    -3.5302e-16
16    6.5052e-18
17    -6.0715e-17
18    -2.5153e-16
19    2.9674e-17
20    -4.9415e-16
21    -2.4113e-16
22    2.9989e-16
23    4.2858e-16
24    3.4312e-16
25    6.6787e-17
26    2.7097e-16
27    -9.5367e-17
28    1.8370e-16
29    -8.9034e-17
30    1.2697e-16
31    9.4065e-16
32    6.0498e-17
33    1.9364e-16
34    1.0734e-16
35    6.1193e-17
36    4.3455e-16
37    -1.0270e-15
38    9.6039e-16
39    -8.3375e-16
40    -5.4427e-16
41    9.0162e-16
42    6.4150e-16
43    4.5710e-16
44    -3.7246e-16
45    2.9057e-16
46    -4.7228e-16
47    -1.9147e-16
48    -2.5612e-16
49    -3.1702e-16
50    3.1732e-17
51    1.0519e-15
52    1.0654e-16
53    8.5348e-16
54    9.7448e-16
55    -2.0167e-18
56    -3.3654e-16
57    -4.3368e-19
58    1.2377e-15
59    3.3307e-16
60    2.6415e-16
61    3.6353e-16
62    -8.2529e-16
63    -8.3007e-16
64    -1.5851e-16
65    -3.1876e-16
66    -2.1176e-16
67    2.8577e-16
68    3.0531e-16
69    -8.2834e-17
70    -2.9126e-16
71    -2.9913e-16
72    -6.7817e-16
73    -1.3487e-16
74    -3.6494e-16
75    4.9808e-16
76    2.7337e-17
77    1.4215e-16
78    -2.9989e-16
79    -7.4564e-18
80    8.8447e-16
81    1.0560e-16
82    4.9646e-17
83    2.7517e-16
84    -8.8037e-16
85    -1.1033e-15
86    9.9208e-17
87    2.9079e-16
88    2.1637e-17
89    1.0274e-15
90    -4.0397e-16
91    -3.0111e-16
92    -1.2341e-16
93    -1.3618e-16
94    2.4224e-16
95    -1.9764e-16
96    1.0869e-16
97    5.6053e-17
98    6.4087e-16
99    -1.6738e-17
100   -2.6140e-16
101   1.2669e-15
102   -2.5591e-16
103   2.0768e-17
104   1.0711e-15
105   3.4478e-16
106   4.9694e-16
107   1.7966e-16
108   3.8771e-16
109   4.0568e-16
110   -2.3419e-16
111   4.3626e-16
112   -2.8376e-16
113   -3.5420e-17
114   -4.3195e-16
115   2.9479e-16
116   -1.4789e-16
117   2.6053e-16
118   -4.0311e-16
119   5.8747e-16
120   -6.6299e-17
121   -3.5979e-16
122   1.1465e-15
123   -5.4931e-16
124   -1.1313e-15
125   4.7378e-16
126   6.6416e-16
127   -7.2162e-16

Decomposition over AOs for the right alpha Dyson orbital:
-2.76770165e-04
2.49340230e-04
1.92061752e-04
-1.96173561e-05
-1.21437584e-16
1.35245158e-03
-2.96179955e-03
1.72367567e-04
4.67582130e-16
-7.67440832e-04
-3.33525840e-04
-2.62396822e-04
7.77552047e-17
8.87576229e-18
4.29168797e-05
3.63657548e-05
1.54783281e-04
-4.33735334e-05
-6.05962902e-06
-1.04043869e-16
-2.10419896e-03
-9.61970253e-05
1.34492512e-03
2.51452985e-16
6.38505391e-05
5.78257116e-05
2.04745284e-05
-1.62149933e-16
-1.36587373e-16
4.45751567e-05
2.80419860e-04
-5.11259133e-04
-1.61132831e-04
5.48293503e-05
4.51471939e-16
-7.40611314e-04
1.60730777e-03
3.71616148e-03
-9.41351628e-16
-1.13905681e-04
-6.05359896e-05
-8.03935369e-05
-2.21933010e-16
2.16518124e-16
-2.18087031e-04
-4.66748451e-05
-2.04677257e-04
-1.07402274e-04
7.45166808e-05
2.30222434e-16
-9.20907118e-04
5.04702124e-04
-9.62295155e-06
-3.36562514e-17
4.61536134e-05
-4.18993364e-05
9.32335082e-05
2.13665406e-16
3.01916686e-17
-7.93848525e-05
3.32194334e-03
-3.65118776e-05
9.61043687e-05
7.47578479e-05
2.73808934e-16
6.29443927e-03
-1.28745906e-03
-3.20665630e-03
3.72015216e-16
-2.39590054e-04
5.53236254e-05
-5.47779485e-04
4.28637253e-17
-1.52479035e-16
-2.00739081e-04
9.95891619e-01
2.65444950e-02
-5.72535460e-04
-5.20630158e-04
2.02344140e-16
-6.58868320e-03
4.04553983e-03
-6.59968663e-03
-5.35809818e-16
-6.20127210e-04
-3.54402931e-04
-1.07083337e-03
-3.61126010e-17
-5.83126309e-16
-2.23256572e-03
-1.91201810e-04
1.16167101e-03
-3.05862419e-04
1.53263938e-04
8.73014766e-17
-6.79400883e-03
2.51791076e-03
-8.13339631e-04
4.08177847e-16
2.81190787e-04
2.54191053e-05
6.05056586e-04
7.27074220e-17
1.69888846e-16
7.03446325e-04
-1.22259796e-04
-5.35979863e-04
-3.85759876e-06
9.98021141e-06
-2.82086900e-16
3.70838436e-03
9.71040020e-04
1.41641225e-04
1.89375843e-16
-2.51757649e-04
4.59035091e-05
-3.80002084e-04
-2.74242771e-16
1.32988890e-16
-3.14941669e-04
-1.68866731e-05
6.08430758e-05
4.57857297e-06
-9.82049460e-05
1.50481720e-05
3.07719140e-04
-4.28336242e-06
6.19024390e-04
   *****

     End transition


 Reference -- EOM-IP-CCSD state  4/A'   transition
 Energy difference = 297.6867 eV.

 Left Dyson orbital norm is 0.931778

Left alpha Dyson orbital in the MO basis (canonical Q-Chem's ordering):
0     1.8218e-05
1     1.5826e-07
2     2.8321e-05
3     -2.9166e-05
4     1.0000e+00
5     -5.4816e-05
6     4.6605e-05
7     -1.7424e-05
8     -5.5685e-16
9     -6.4272e-16
10    1.7759e-16
11    -4.6230e-16
12    3.8164e-17
13    2.7625e-16
14    1.4225e-16
15    4.0224e-16
16    -1.9299e-16
17    2.3202e-16
18    -5.9197e-16
19    -1.1208e-16
20    -4.5320e-17
21    1.6924e-16
22    -3.9085e-17
23    2.6292e-16
24    -1.4378e-16
25    -5.2839e-16
26    3.2309e-16
27    -1.5238e-16
28    -4.1391e-16
29    1.3755e-17
30    1.6350e-16
31    1.7766e-16
32    -1.6263e-17
33    -9.8315e-16
34    1.8648e-17
35    -2.5057e-16
36    1.1427e-16
37    4.3108e-16
38    5.9815e-16
39    -8.2399e-18
40    -6.9085e-16
41    -1.4268e-16
42    -1.5439e-16
43    -1.0625e-17
44    1.0544e-16
45    -5.0827e-16
46    6.1921e-16
47    -8.2367e-16
48    2.9491e-16
49    6.1669e-16
50    1.0676e-16
51    -1.7260e-16
52    1.3940e-16
53    -3.7253e-16
54    -2.3050e-16
55    4.8096e-16
56    -7.7108e-16
57    2.7235e-16
58    5.7896e-17
59    4.3932e-16
60    1.8335e-16
61    -7.4842e-16
62    1.3661e-17
63    -3.2943e-16
64    8.1315e-18
65    -2.3007e-16
66    -7.4528e-16
67    -5.3128e-16
68    -4.4550e-16
69    5.2999e-16
70    -9.3030e-16
71    -5.9656e-16
72    -7.0464e-16
73    4.2902e-16
74    -3.7307e-16
75    8.2486e-16
76    3.1592e-16
77    2.2239e-16
78    2.7327e-16
79    2.2951e-16
80    -4.5412e-16
81    -2.0099e-16
82    6.8267e-17
83    -5.7422e-16
84    4.1460e-16
85    6.7958e-16
86    -4.4382e-16
87    1.4683e-16
88    5.3386e-17
89    9.4759e-17
90    1.8757e-17
91    1.6824e-16
92    7.8442e-16
93    -4.5087e-16
94    -7.4517e-16
95    6.7220e-16
96    1.0627e-15
97    8.5231e-16
98    -1.0132e-16
99    -1.6859e-16
100   -1.0091e-16
101   -3.9443e-16
102   1.1727e-16
103   -9.8640e-17
104   7.9927e-16
105   7.4905e-16
106   -2.2438e-16
107   -2.3119e-16
108   -4.3157e-16
109   7.0620e-16
110   5.1181e-16
111   -9.0087e-16
112   -8.5663e-16
113   4.1948e-16
114   -2.7162e-16
115   -1.5127e-15
116   -2.4329e-16
117   6.0845e-16
118   -6.8223e-17
119   -1.9483e-16
120   1.0291e-15
121   -8.0377e-16
122   1.2521e-15
123   1.2497e-15
124   7.0744e-17
125   -4.1696e-16
126   -5.2299e-17
127   -2.0285e-16

Decomposition over AOs for the left alpha Dyson orbital:
2.81343093e-04
-2.81811308e-04
8.79169240e-05
-6.96413623e-06
-4.64185309e-16
-2.70962565e-04
-1.42413679e-03
7.09992882e-04
-2.18938589e-17
6.05001451e-04
-2.53787100e-04
2.34235707e-04
8.64671265e-17
-1.25751015e-16
-8.20345039e-05
2.51103001e-04
-3.83650229e-04
2.10939862e-05
7.40478298e-05
2.03955405e-16
2.59368964e-04
3.95417862e-04
-1.11346258e-03
-3.58357709e-16
1.34625059e-04
7.30235743e-05
7.04909218e-04
-4.93930412e-17
-5.37367020e-16
-1.34021726e-04
-9.95848440e-01
-2.60190072e-02
-5.75682542e-04
-3.78650864e-04
-4.84382269e-16
2.36675859e-03
3.60286062e-03
2.34043398e-03
6.80027235e-16
6.02186141e-04
-3.43467512e-04
9.70812233e-04
3.29338057e-16
-1.15888521e-16
2.34155123e-03
2.61340918e-04
5.69283614e-04
-4.21330629e-05
-1.59186236e-04
-8.94384996e-17
-4.08269520e-03
-1.42286530e-03
3.93997935e-03
-1.79076217e-17
-9.39900851e-05
-4.04971269e-05
-9.06810581e-05
1.69164234e-16
1.21431410e-16
2.10348774e-04
-1.84668969e-06
-3.24858032e-04
-9.53046711e-05
-5.35285210e-05
-7.82608430e-17
6.64855364e-03
-3.15516381e-03
-1.83023204e-03
-6.63572398e-16
8.80197677e-05
2.85606495e-05
2.82785340e-05
-1.52164600e-16
1.04182047e-15
-6.03174904e-05
5.07397467e-04
6.26466115e-04
-1.29302325e-04
-3.03099721e-07
-2.17883040e-17
-1.85826793e-03
3.22079930e-03
-3.80043283e-03
5.74443368e-16
7.20365913e-05
-3.70588943e-05
8.69724492e-05
-3.05703409e-16
4.15637813e-16
2.30392627e-04
1.22971144e-04
5.43223510e-04
1.31956501e-06
-3.57000810e-06
2.98386704e-16
-3.93329041e-03
8.13204313e-04
-2.51526915e-04
6.03030353e-17
2.92072514e-04
2.87370260e-05
3.71169090e-04
-3.69131204e-16
-1.05467051e-17
2.97860300e-04
2.27012649e-04
-1.00020048e-03
-3.26911879e-04
-1.90130749e-04
4.71565723e-16
5.63353312e-03
2.01716767e-03
1.19884811e-03
-7.31780217e-16
-3.89754795e-04
4.40741933e-05
-4.01874356e-04
7.13016770e-16
5.66933716e-16
-5.87172445e-04
9.78672069e-05
-9.34755941e-06
7.32873351e-05
1.22844893e-04
-2.12311953e-04
-1.42765116e-03
7.52312681e-05
8.43047868e-04
   *****

 Right Dyson orbital norm is 0.957081

Right alpha Dyson orbital in the MO basis (canonical Q-Chem's ordering):
0     1.7165e-05
1     1.2531e-07
2     2.5226e-05
3     -2.6069e-05
4     1.0000e+00
5     -5.5367e-05
6     4.8210e-05
7     -2.2574e-05
8     -5.5164e-16
9     -6.4618e-16
10    1.7781e-16
11    -4.6491e-16
12    4.6838e-17
13    2.7669e-16
14    1.4919e-16
15    4.0246e-16
16    -1.9342e-16
17    2.2985e-16
18    -5.9111e-16
19    -1.1208e-16
20    -4.7922e-17
21    1.6930e-16
22    -3.8760e-17
23    2.6291e-16
24    -1.4378e-16
25    -5.2909e-16
26    3.2298e-16
27    -1.5238e-16
28    -4.1391e-16
29    1.3755e-17
30    1.6350e-16
31    1.7757e-16
32    -1.7347e-17
33    -9.8381e-16
34    1.8648e-17
35    -2.5057e-16
36    1.1384e-16
37    4.2848e-16
38    5.9740e-16
39    -6.9389e-18
40    -6.8999e-16
41    -1.4290e-16
42    -1.5309e-16
43    -1.0625e-17
44    1.0544e-16
45    -5.0827e-16
46    6.1946e-16
47    -8.2486e-16
48    2.9491e-16
49    6.1734e-16
50    1.0676e-16
51    -1.7304e-16
52    1.3940e-16
53    -3.7513e-16
54    -2.3115e-16
55    4.8096e-16
56    -7.7195e-16
57    2.7105e-16
58    5.8005e-17
59    4.4105e-16
60    1.8335e-16
61    -7.4702e-16
62    1.4528e-17
63    -3.2960e-16
64    7.9689e-18
65    -2.2996e-16
66    -7.4463e-16
67    -5.3128e-16
68    -4.4539e-16
69    5.2999e-16
70    -9.2987e-16
71    -5.9656e-16
72    -7.0465e-16
73    4.2859e-16
74    -3.7313e-16
75    8.2421e-16
76    3.1592e-16
77    2.2239e-16
78    2.7371e-16
79    2.2951e-16
80    -4.5406e-16
81    -2.0099e-16
82    6.8264e-17
83    -5.7395e-16
84    4.1525e-16
85    6.7971e-16
86    -4.4391e-16
87    1.4683e-16
88    5.3384e-17
89    9.4976e-17
90    1.8594e-17
91    1.6839e-16
92    7.8442e-16
93    -4.5081e-16
94    -7.4517e-16
95    6.7220e-16
96    1.0627e-15
97    8.5222e-16
98    -1.0143e-16
99    -1.6859e-16
100   -1.0110e-16
101   -3.9476e-16
102   1.1727e-16
103   -9.8640e-17
104   7.9982e-16
105   7.4902e-16
106   -2.2394e-16
107   -2.3119e-16
108   -4.3151e-16
109   7.0587e-16
110   5.1181e-16
111   -9.0087e-16
112   -8.5674e-16
113   4.1948e-16
114   -2.7157e-16
115   -1.5142e-15
116   -2.4321e-16
117   6.0824e-16
118   -6.8278e-17
119   -1.9478e-16
120   1.0291e-15
121   -8.0345e-16
122   1.2521e-15
123   1.2496e-15
124   7.0473e-17
125   -4.1696e-16
126   -5.2394e-17
127   -2.0275e-16

Decomposition over AOs for the right alpha Dyson orbital:
2.78263136e-04
-2.81889421e-04
8.79172907e-05
-6.96467940e-06
-4.64182820e-16
-2.70961056e-04
-1.42413661e-03
7.09993017e-04
-2.18978002e-17
6.05012445e-04
-2.53786935e-04
2.34247208e-04
8.64669947e-17
-1.25751994e-16
-8.20236068e-05
2.48021170e-04
-3.83727677e-04
2.10935338e-05
7.40478526e-05
2.03956461e-16
2.59367863e-04
3.95413487e-04
-1.11346412e-03
-3.58360700e-16
1.34635989e-04
7.30229401e-05
7.04920046e-04
-4.93938826e-17
-5.37368217e-16
-1.34010504e-04
-9.95848440e-01
-2.60190102e-02
-5.75683427e-04
-3.78651337e-04
-4.84378944e-16
2.36675467e-03
3.60286600e-03
2.34043523e-03
6.80027310e-16
6.02187413e-04
-3.43467334e-04
9.70813332e-04
3.29336040e-16
-1.15886922e-16
2.34155121e-03
2.62890560e-04
5.69323453e-04
-4.21351958e-05
-1.59186160e-04
-8.94365554e-17
-4.08268681e-03
-1.42286153e-03
3.93997118e-03
-1.79075651e-17
-9.39937545e-05
-4.04965548e-05
-9.06847789e-05
1.69167255e-16
1.21431059e-16
2.10344595e-04
3.29601243e-06
-3.24713061e-04
-9.53070813e-05
-5.35301111e-05
-7.82615097e-17
6.64849294e-03
-3.15515884e-03
-1.83022364e-03
-6.63572487e-16
8.80105153e-05
2.85597758e-05
2.82680954e-05
-1.52166403e-16
1.04182138e-15
-6.03300413e-05
5.07928119e-04
6.26479563e-04
-1.29302144e-04
-3.03609630e-07
-2.17892193e-17
-1.85824957e-03
3.22080249e-03
-3.80042484e-03
5.74447225e-16
7.20351737e-05
-3.70592557e-05
8.69690640e-05
-3.05703483e-16
4.15635746e-16
2.30390869e-04
1.22938370e-04
5.43223544e-04
1.31924704e-06
-3.56996544e-06
2.98386300e-16
-3.93329619e-03
8.13205465e-04
-2.51528975e-04
6.03008835e-17
2.92073392e-04
2.87370659e-05
3.71169895e-04
-3.69131944e-16
-1.05469322e-17
2.97860779e-04
2.25964670e-04
-1.00022366e-03
-3.26913328e-04
-1.90131615e-04
4.71566437e-16
5.63353590e-03
2.01716910e-03
1.19884922e-03
-7.31781203e-16
-3.89751589e-04
4.40740939e-05
-4.01871038e-04
7.13016322e-16
5.66934443e-16
-5.87168553e-04
9.78663991e-05
-9.34773764e-06
7.32861638e-05
1.22843889e-04
-2.12312128e-04
-1.42764698e-03
7.52303421e-05
8.43055284e-04
   *****

     End transition

 Dyson orbitals calculation:   CPU 0.03 s  wall 0.03 s

 Total ccman2 time:   CPU 106.83 s  wall 62.68 s


 --------------------------------------------------------------
             Orbital Energies (a.u.) and Symmetries
 --------------------------------------------------------------

 Alpha MOs, Restricted
 -- Occupied --                  
-20.551 -20.546 -15.647 -15.628 -11.420 -11.381 -11.341 -11.255
  1 A'    2 A'    3 A'    4 A'    5 A'    6 A'    7 A'    8 A'                 
 -1.434  -1.398  -1.308  -1.241  -1.083  -0.926  -0.895  -0.801
  9 A'   10 A'   11 A'   12 A'   13 A'   14 A'   15 A'   16 A'                 
 -0.759  -0.709  -0.671  -0.662  -0.646  -0.610  -0.596  -0.565
 17 A'   18 A'   19 A'    1 A"   20 A'   21 A'   22 A'    2 A"                 
 -0.520  -0.477  -0.441  -0.429  -0.362
  3 A"   23 A'   24 A'    4 A"    5 A"                                         
 -- Virtual --                   
  0.104   0.179   0.191   0.249   0.256   0.298   0.321   0.373
  6 A"    7 A"   25 A'   26 A'   27 A'   28 A'    8 A"   29 A'                 
  0.404   0.422   0.443   0.501   0.534   0.551   0.667   0.692
 30 A'   31 A'   32 A'   33 A'   34 A'   35 A'   36 A'    9 A"                 
  0.714   0.741   0.779   0.782   0.799   0.805   0.869   0.885
 37 A'   38 A'   39 A'   10 A"   40 A'   11 A"   41 A'   12 A"                 
  0.910   0.946   0.984   0.998   1.024   1.062   1.078   1.094
 42 A'   43 A'   13 A"   44 A'   45 A'   46 A'   47 A'   14 A"                 
  1.098   1.113   1.146   1.170   1.230   1.261   1.303   1.315
 48 A'   49 A'   50 A'   51 A'   52 A'   53 A'   15 A"   54 A'                 
  1.331   1.364   1.386   1.431   1.453   1.557   1.591   1.596
 16 A"   55 A'   56 A'   17 A"   57 A'   58 A'   59 A'   18 A"                 
  1.648   1.682   1.687   1.706   1.713   1.717   1.816   1.868
 19 A"   60 A'   20 A"   61 A'   21 A"   22 A"   62 A'   63 A'                 
  2.024   2.047   2.081   2.095   2.097   2.119   2.144   2.206
 64 A'   65 A'   23 A"   24 A"   66 A'   67 A'   68 A'   69 A'                 
  2.270   2.272   2.290   2.311   2.382   2.452   2.480   2.485
 70 A'   25 A"   26 A"   71 A'   72 A'   73 A'   27 A"   74 A'                 
  2.529   2.587   2.629   2.632   2.712   2.877   2.934   2.936
 75 A'   28 A"   29 A"   76 A'   77 A'   78 A'   30 A"   79 A'                 
  2.972   2.977   3.005   3.081   3.135   3.170   3.330   3.354
 80 A'   31 A"   32 A"   81 A'   82 A'   83 A'   84 A'   85 A'                 
  3.365   3.588   3.769   4.324   4.374   4.404   4.553   4.592
 86 A'   87 A'   88 A'   89 A'   90 A'   91 A'   92 A'   93 A'                 
  4.782   4.992   5.074
 94 A'   95 A'   96 A'                                                         

 Beta MOs, Restricted
 -- Occupied --                  
-20.551 -20.546 -15.647 -15.628 -11.420 -11.381 -11.341 -11.255
  1 A'    2 A'    3 A'    4 A'    5 A'    6 A'    7 A'    8 A'                 
 -1.434  -1.398  -1.308  -1.241  -1.083  -0.926  -0.895  -0.801
  9 A'   10 A'   11 A'   12 A'   13 A'   14 A'   15 A'   16 A'                 
 -0.759  -0.709  -0.671  -0.662  -0.646  -0.610  -0.596  -0.565
 17 A'   18 A'   19 A'    1 A"   20 A'   21 A'   22 A'    2 A"                 
 -0.520  -0.477  -0.441  -0.429  -0.362
  3 A"   23 A'   24 A'    4 A"    5 A"                                         
 -- Virtual --                   
  0.104   0.179   0.191   0.249   0.256   0.298   0.321   0.373
  6 A"    7 A"   25 A'   26 A'   27 A'   28 A'    8 A"   29 A'                 
  0.404   0.422   0.443   0.501   0.534   0.551   0.667   0.692
 30 A'   31 A'   32 A'   33 A'   34 A'   35 A'   36 A'    9 A"                 
  0.714   0.741   0.779   0.782   0.799   0.805   0.869   0.885
 37 A'   38 A'   39 A'   10 A"   40 A'   11 A"   41 A'   12 A"                 
  0.910   0.946   0.984   0.998   1.024   1.062   1.078   1.094
 42 A'   43 A'   13 A"   44 A'   45 A'   46 A'   47 A'   14 A"                 
  1.098   1.113   1.146   1.170   1.230   1.261   1.303   1.315
 48 A'   49 A'   50 A'   51 A'   52 A'   53 A'   15 A"   54 A'                 
  1.331   1.364   1.386   1.431   1.453   1.557   1.591   1.596
 16 A"   55 A'   56 A'   17 A"   57 A'   58 A'   59 A'   18 A"                 
  1.648   1.682   1.687   1.706   1.713   1.717   1.816   1.868
 19 A"   60 A'   20 A"   61 A'   21 A"   22 A"   62 A'   63 A'                 
  2.024   2.047   2.081   2.095   2.097   2.119   2.144   2.206
 64 A'   65 A'   23 A"   24 A"   66 A'   67 A'   68 A'   69 A'                 
  2.270   2.272   2.290   2.311   2.382   2.452   2.480   2.485
 70 A'   25 A"   26 A"   71 A'   72 A'   73 A'   27 A"   74 A'                 
  2.529   2.587   2.629   2.632   2.712   2.877   2.934   2.936
 75 A'   28 A"   29 A"   76 A'   77 A'   78 A'   30 A"   79 A'                 
  2.972   2.977   3.005   3.081   3.135   3.170   3.330   3.354
 80 A'   31 A"   32 A"   81 A'   82 A'   83 A'   84 A'   85 A'                 
  3.365   3.588   3.769   4.324   4.374   4.404   4.553   4.592
 86 A'   87 A'   88 A'   89 A'   90 A'   91 A'   92 A'   93 A'                 
  4.782   4.992   5.074
 94 A'   95 A'   96 A'                                                         
 --------------------------------------------------------------

          Ground-State Mulliken Net Atomic Charges

     Atom                 Charge (a.u.)
  ----------------------------------------
      1 N                    -0.929332
      2 N                    -0.866116
      3 C                     1.045193
      4 C                     0.175155
      5 C                    -0.409246
      6 C                     0.837648
      7 O                    -0.599190
      8 O                    -0.607855
      9 H                     0.429484
     10 H                     0.425929
     11 H                     0.251584
     12 H                     0.246746
  ----------------------------------------
  Sum of atomic charges =     0.000000

 -----------------------------------------------------------------
                    Cartesian Multipole Moments
 -----------------------------------------------------------------
    Charge (ESU x 10^10)
                 0.0000
    Dipole Moment (Debye)
         X      -1.3265      Y       4.6898      Z       0.0000
       Tot       4.8738
    Quadrupole Moments (Debye-Ang)
        XX     -58.6527     XY      -2.4894     YY     -37.4923
        XZ      -0.0000     YZ       0.0000     ZZ     -46.1292
    Octopole Moments (Debye-Ang^2)
       XXX     -11.0357    XXY      32.6801    XYY      -4.8858
       YYY       6.9662    XXZ      -0.0000    XYZ       0.0000
       YYZ       0.0000    XZZ      -1.6168    YZZ      -4.5792
       ZZZ       0.0000
    Hexadecapole Moments (Debye-Ang^3)
      XXXX    -695.1892   XXXY     -13.1197   XXYY    -169.9456
      XYYY     -13.0316   YYYY    -296.7636   XXXZ      -0.0000
      XXYZ       0.0000   XYYZ      -0.0000   YYYZ       0.0000
      XXZZ    -108.5499   XYZZ      -2.5829   YYZZ     -72.9091
      XZZZ      -0.0000   YZZZ       0.0000   ZZZZ     -41.4233
 -----------------------------------------------------------------
Archival summary:
1\1\Annas-MacBook-Pro-4.local\SP\ProcedureUnspecified\6-31G*\2244\WedMay2906:21:162019WedMay2906:21:162019\0\\#,ProcedureUnspecified,6-31G*,\\0,1\N\H,1,1.01538\C,1,1.38049,2,115.582\O,3,1.2104,1,124.196,2,0,0\N,3,1.38945,1,113.089,2,-180,0\H,5,1.01132,3,115.073,1,-180,0\C,5,1.3722,3,123.45,1,-0,0\H,7,1.09034,5,115.558,3,-180,0\C,7,1.34729,5,122.094,3,-0,0\H,9,1.08676,7,122.157,5,-180,0\C,1,1.40477,2,116.161,3,180,0\O,11,1.2125,1,120.408,2,-0,0\\HF=-412.467146\\@

 Total job time:  76.40s(wall), 120.35s(cpu) 
 Wed May 29 06:21:16 2019

        *************************************************************
        *                                                           *
        *  Thank you very much for using Q-Chem.  Have a nice day.  *
        *                                                           *
        *************************************************************


