[Molden Format]
[Atoms] (Angs)
  C      1    6     -0.00714236     -1.70213747     -0.00000000
  H      2    1     -2.06882847     -1.44022412      0.00000000
  H      3    1     -0.12337987     -2.77567521      0.00000000
  H      4    1      0.04651892      1.98813947     -0.00000000
  C      5    6     -1.21953563      0.40211669      0.00000000
  O      6    8     -2.25921553      1.03043814      0.00000000
  C      7    6      1.28797806      0.34644937     -0.00000000
  O      8    8      2.31273661      1.00537216     -0.00000000
  N      9    7      0.03446295      0.97739857     -0.00000000
  N     10    7     -1.17287765     -0.98229824      0.00000000
  C     11    6      1.20107039     -1.10433419     -0.00000000
  H     12    1      2.11220096     -1.67699125     -0.00000000
[GTO]
1    0
S    1    1.000000
   4.56324000E+03    1.96665000E-03 
S    1    1.000000
   6.82024000E+02    1.52306000E-02 
S    1    1.000000
   1.54973000E+02    7.61269000E-02 
S    1    1.000000
   4.44553000E+01    2.60801000E-01 
S    1    1.000000
   1.30290000E+01    6.16462000E-01 
S    1    1.000000
   1.82773000E+00    2.21006000E-01 
SP   3    1.000000
   2.09642000E+01    1.14660000E-01   4.02487000E-02 
   4.80331000E+00    9.19999000E-01   2.37594000E-01 
   1.45933000E+00   -3.03068000E-03   8.15854000E-01 
SP   1    1.000000
   4.83456000E-01    1.00000000E+00   1.00000000E+00 
SP   1    1.000000
   1.45585000E-01    1.00000000E+00   1.00000000E+00 
SP   1    1.000000
   4.38000000E-02    1.00000000E+00   1.00000000E+00 
SP   1    1.000000
   1.31927711E-02    1.00000000E+00   1.00000000E+00 
D    1    1.000000
   6.26000000E-01    1.00000000E+00 

2    0
S    3    1.000000
   3.38650000E+01    2.54938000E-02 
   5.09479000E+00    1.90373000E-01 
   1.15879000E+00    8.52161000E-01 
S    1    1.000000
   3.25840000E-01    1.00000000E+00 
S    1    1.000000
   1.02741000E-01    1.00000000E+00 
S    1    1.000000
   3.60000000E-02    1.00000000E+00 
P    1    1.000000
   7.50000000E-01    1.00000000E+00 

3    0
S    3    1.000000
   3.38650000E+01    2.54938000E-02 
   5.09479000E+00    1.90373000E-01 
   1.15879000E+00    8.52161000E-01 
S    1    1.000000
   3.25840000E-01    1.00000000E+00 
S    1    1.000000
   1.02741000E-01    1.00000000E+00 
S    1    1.000000
   3.60000000E-02    1.00000000E+00 
P    1    1.000000
   7.50000000E-01    1.00000000E+00 

4    0
S    3    1.000000
   3.38650000E+01    2.54938000E-02 
   5.09479000E+00    1.90373000E-01 
   1.15879000E+00    8.52161000E-01 
S    1    1.000000
   3.25840000E-01    1.00000000E+00 
S    1    1.000000
   1.02741000E-01    1.00000000E+00 
S    1    1.000000
   3.60000000E-02    1.00000000E+00 
P    1    1.000000
   7.50000000E-01    1.00000000E+00 

5    0
S    1    1.000000
   4.56324000E+03    1.96665000E-03 
S    1    1.000000
   6.82024000E+02    1.52306000E-02 
S    1    1.000000
   1.54973000E+02    7.61269000E-02 
S    1    1.000000
   4.44553000E+01    2.60801000E-01 
S    1    1.000000
   1.30290000E+01    6.16462000E-01 
S    1    1.000000
   1.82773000E+00    2.21006000E-01 
SP   3    1.000000
   2.09642000E+01    1.14660000E-01   4.02487000E-02 
   4.80331000E+00    9.19999000E-01   2.37594000E-01 
   1.45933000E+00   -3.03068000E-03   8.15854000E-01 
SP   1    1.000000
   4.83456000E-01    1.00000000E+00   1.00000000E+00 
SP   1    1.000000
   1.45585000E-01    1.00000000E+00   1.00000000E+00 
SP   1    1.000000
   4.38000000E-02    1.00000000E+00   1.00000000E+00 
SP   1    1.000000
   1.31927711E-02    1.00000000E+00   1.00000000E+00 
D    1    1.000000
   6.26000000E-01    1.00000000E+00 

6    0
S    1    1.000000
   8.58850000E+03    1.89515000E-03 
S    1    1.000000
   1.29723000E+03    1.43859000E-02 
S    1    1.000000
   2.99296000E+02    7.07320000E-02 
S    1    1.000000
   8.73771000E+01    2.40001000E-01 
S    1    1.000000
   2.56789000E+01    5.94797000E-01 
S    1    1.000000
   3.74004000E+00    2.80802000E-01 
SP   3    1.000000
   4.21175000E+01    1.13889000E-01   3.65114000E-02 
   9.62837000E+00    9.20811000E-01   2.37153000E-01 
   2.85332000E+00   -3.27447000E-03   8.19702000E-01 
SP   1    1.000000
   9.05661000E-01    1.00000000E+00   1.00000000E+00 
SP   1    1.000000
   2.55611000E-01    1.00000000E+00   1.00000000E+00 
SP   1    1.000000
   8.45000000E-02    1.00000000E+00   1.00000000E+00 
SP   1    1.000000
   2.54518072E-02    1.00000000E+00   1.00000000E+00 
D    1    1.000000
   1.29200000E+00    1.00000000E+00 

7    0
S    1    1.000000
   4.56324000E+03    1.96665000E-03 
S    1    1.000000
   6.82024000E+02    1.52306000E-02 
S    1    1.000000
   1.54973000E+02    7.61269000E-02 
S    1    1.000000
   4.44553000E+01    2.60801000E-01 
S    1    1.000000
   1.30290000E+01    6.16462000E-01 
S    1    1.000000
   1.82773000E+00    2.21006000E-01 
SP   3    1.000000
   2.09642000E+01    1.14660000E-01   4.02487000E-02 
   4.80331000E+00    9.19999000E-01   2.37594000E-01 
   1.45933000E+00   -3.03068000E-03   8.15854000E-01 
SP   1    1.000000
   4.83456000E-01    1.00000000E+00   1.00000000E+00 
SP   1    1.000000
   1.45585000E-01    1.00000000E+00   1.00000000E+00 
SP   1    1.000000
   4.38000000E-02    1.00000000E+00   1.00000000E+00 
SP   1    1.000000
   1.31927711E-02    1.00000000E+00   1.00000000E+00 
D    1    1.000000
   6.26000000E-01    1.00000000E+00 

8    0
S    1    1.000000
   8.58850000E+03    1.89515000E-03 
S    1    1.000000
   1.29723000E+03    1.43859000E-02 
S    1    1.000000
   2.99296000E+02    7.07320000E-02 
S    1    1.000000
   8.73771000E+01    2.40001000E-01 
S    1    1.000000
   2.56789000E+01    5.94797000E-01 
S    1    1.000000
   3.74004000E+00    2.80802000E-01 
SP   3    1.000000
   4.21175000E+01    1.13889000E-01   3.65114000E-02 
   9.62837000E+00    9.20811000E-01   2.37153000E-01 
   2.85332000E+00   -3.27447000E-03   8.19702000E-01 
SP   1    1.000000
   9.05661000E-01    1.00000000E+00   1.00000000E+00 
SP   1    1.000000
   2.55611000E-01    1.00000000E+00   1.00000000E+00 
SP   1    1.000000
   8.45000000E-02    1.00000000E+00   1.00000000E+00 
SP   1    1.000000
   2.54518072E-02    1.00000000E+00   1.00000000E+00 
D    1    1.000000
   1.29200000E+00    1.00000000E+00 

9    0
S    1    1.000000
   6.29348000E+03    1.96979000E-03 
S    1    1.000000
   9.49044000E+02    1.49613000E-02 
S    1    1.000000
   2.18776000E+02    7.35006000E-02 
S    1    1.000000
   6.36916000E+01    2.48937000E-01 
S    1    1.000000
   1.88282000E+01    6.02460000E-01 
S    1    1.000000
   2.72023000E+00    2.56202000E-01 
SP   3    1.000000
   3.06331000E+01    1.11906000E-01   3.83119000E-02 
   7.02614000E+00    9.21666000E-01   2.37403000E-01 
   2.11205000E+00   -2.56919000E-03   8.17592000E-01 
SP   1    1.000000
   6.84009000E-01    1.00000000E+00   1.00000000E+00 
SP   1    1.000000
   2.00878000E-01    1.00000000E+00   1.00000000E+00 
SP   1    1.000000
   6.39000000E-02    1.00000000E+00   1.00000000E+00 
SP   1    1.000000
   1.92469880E-02    1.00000000E+00   1.00000000E+00 
D    1    1.000000
   9.13000000E-01    1.00000000E+00 

10    0
S    1    1.000000
   6.29348000E+03    1.96979000E-03 
S    1    1.000000
   9.49044000E+02    1.49613000E-02 
S    1    1.000000
   2.18776000E+02    7.35006000E-02 
S    1    1.000000
   6.36916000E+01    2.48937000E-01 
S    1    1.000000
   1.88282000E+01    6.02460000E-01 
S    1    1.000000
   2.72023000E+00    2.56202000E-01 
SP   3    1.000000
   3.06331000E+01    1.11906000E-01   3.83119000E-02 
   7.02614000E+00    9.21666000E-01   2.37403000E-01 
   2.11205000E+00   -2.56919000E-03   8.17592000E-01 
SP   1    1.000000
   6.84009000E-01    1.00000000E+00   1.00000000E+00 
SP   1    1.000000
   2.00878000E-01    1.00000000E+00   1.00000000E+00 
SP   1    1.000000
   6.39000000E-02    1.00000000E+00   1.00000000E+00 
SP   1    1.000000
   1.92469880E-02    1.00000000E+00   1.00000000E+00 
D    1    1.000000
   9.13000000E-01    1.00000000E+00 

11    0
S    1    1.000000
   4.56324000E+03    1.96665000E-03 
S    1    1.000000
   6.82024000E+02    1.52306000E-02 
S    1    1.000000
   1.54973000E+02    7.61269000E-02 
S    1    1.000000
   4.44553000E+01    2.60801000E-01 
S    1    1.000000
   1.30290000E+01    6.16462000E-01 
S    1    1.000000
   1.82773000E+00    2.21006000E-01 
SP   3    1.000000
   2.09642000E+01    1.14660000E-01   4.02487000E-02 
   4.80331000E+00    9.19999000E-01   2.37594000E-01 
   1.45933000E+00   -3.03068000E-03   8.15854000E-01 
SP   1    1.000000
   4.83456000E-01    1.00000000E+00   1.00000000E+00 
SP   1    1.000000
   1.45585000E-01    1.00000000E+00   1.00000000E+00 
SP   1    1.000000
   4.38000000E-02    1.00000000E+00   1.00000000E+00 
SP   1    1.000000
   1.31927711E-02    1.00000000E+00   1.00000000E+00 
D    1    1.000000
   6.26000000E-01    1.00000000E+00 

12    0
S    3    1.000000
   3.38650000E+01    2.54938000E-02 
   5.09479000E+00    1.90373000E-01 
   1.15879000E+00    8.52161000E-01 
S    1    1.000000
   3.25840000E-01    1.00000000E+00 
S    1    1.000000
   1.02741000E-01    1.00000000E+00 
S    1    1.000000
   3.60000000E-02    1.00000000E+00 
P    1    1.000000
   7.50000000E-01    1.00000000E+00 

[MO]
Sym=X
Ene=0.927305
Spin=Alpha
Occup=1
1    1.2661004e-08
2    -8.53525375e-08
3    2.92017315e-07
4    -4.35225658e-06
5    -1.99370874e-05
6    1.1353375e-05
7    -8.19031613e-07
8    -7.68349005e-06
9    -5.69844083e-16
10    3.37390953e-05
11    1.09471432e-05
12    3.58104888e-05
13    9.40834295e-16
14    0.0002151361
15    4.99603977e-05
16    7.52409465e-05
17    1.34627176e-15
18    0.000876589969
19    -6.2403896e-05
20    0.000764033731
21    1.65614515e-14
22    4.9466907e-05
23    -0.000379645618
24    0.000280647517
25    5.6319631e-14
26    3.44375162e-07
27    9.14931845e-16
28    -6.08836049e-06
29    -3.77479604e-16
30    3.01188883e-06
31    6.901594e-06
32    -2.71338335e-05
33    -0.00018094818
34    -0.000292188428
35    -2.4890952e-06
36    1.87682424e-06
37    7.71550303e-16
38    3.21911772e-06
39    2.36985469e-06
40    4.7120947e-05
41    0.000653242024
42    -1.46634444e-06
43    1.80880166e-06
44    -3.86667501e-16
45    0.000247048377
46    0.000101587987
47    0.000241162461
48    0.000307873844
49    -4.21999952e-06
50    -0.000124203673
51    2.04625607e-15
52    2.24138383e-08
53    1.87550635e-07
54    7.7020256e-07
55    2.91434122e-06
56    1.94957786e-08
57    -5.63143444e-05
58    3.17002516e-06
59    4.62290184e-05
60    2.25183669e-05
61    2.70236359e-15
62    0.000286761081
63    0.000309828597
64    0.000128741894
65    2.38202831e-15
66    -0.000171803073
67    -5.04171789e-05
68    -0.000190194626
69    9.01815751e-15
70    -0.000921648694
71    -0.000499667807
72    0.000187583211
73    3.47295203e-14
74    -0.000940825077
75    -2.92209421e-05
76    0.000364025716
77    -8.7056835e-15
78    0.000139481873
79    2.54280593e-17
80    -1.83822797e-05
81    8.3900896e-16
82    0.000145882579
83    7.3652893e-09
84    7.34155216e-08
85    2.3755073e-07
86    1.27766556e-06
87    -1.3020791e-06
88    -1.40497653e-05
89    1.47601508e-05
90    -1.70275799e-05
91    -3.87253577e-06
92    1.05851985e-15
93    1.84974169e-05
94    3.83079581e-05
95    -9.19888686e-06
96    7.90172857e-16
97    8.85416557e-05
98    1.25372157e-05
99    1.02690897e-05
100    5.49579043e-15
101    -8.03123569e-05
102    2.54962501e-05
103    -2.26410484e-06
104    -8.1133358e-15
105    -0.000586371265
106    -4.15478856e-05
107    6.47123571e-05
108    9.51234717e-15
109    -2.03663769e-07
110    -3.35584044e-16
111    -4.39817571e-06
112    5.15892687e-16
113    2.34844379e-05
114    2.02136822e-08
115    1.75586671e-07
116    6.8056127e-07
117    2.836695e-06
118    5.44851347e-07
119    -3.6011434e-05
120    9.3221972e-07
121    -4.5836319e-05
122    2.7918259e-05
123    2.31771393e-15
124    0.000236566184
125    -0.000242238753
126    0.000122840595
127    5.15519587e-15
128    -0.000179210224
129    -1.18572758e-05
130    -0.00010329467
131    5.97489745e-15
132    -0.00165307257
133    0.000731567351
134    0.000301407925
135    2.58538394e-14
136    0.000186088217
137    0.000322167432
138    -3.50243812e-05
139    4.89502771e-14
140    -0.000117121536
141    2.52871635e-16
142    -1.86678854e-06
143    -7.85138031e-16
144    0.000113147075
145    7.39897071e-09
146    7.21960249e-08
147    2.42125379e-07
148    1.2533241e-06
149    -9.83420011e-07
150    -1.26695784e-05
151    1.38737198e-05
152    1.67292803e-05
153    -3.53929066e-06
154    1.35377168e-15
155    1.53482147e-05
156    -3.52637666e-05
157    -1.20987395e-05
158    2.71858519e-15
159    8.16911943e-05
160    1.93684781e-06
161    -5.41264122e-06
162    3.14146401e-15
163    -6.17398302e-05
164    -4.77834033e-05
165    -1.0168127e-05
166    1.75630403e-15
167    -0.000581383053
168    3.67946133e-05
169    2.20804209e-05
170    -3.65039675e-15
171    2.92011339e-06
172    -1.39806744e-16
173    -5.73454654e-06
174    -6.57928301e-16
175    1.7821979e-05
176    0.00109716618
177    0.00835381293
178    0.0409316958
179    0.138936268
180    0.33592162
181    0.144117182
182    0.467440214
183    -0.000169198849
184    -0.000149582898
185    2.89317727e-15
186    0.00432141022
187    0.000113014965
188    4.22901263e-05
189    3.14358037e-15
190    -0.000407166031
191    -8.35730467e-05
192    -1.91104044e-05
193    8.21742999e-15
194    0.00226159742
195    -3.70465404e-06
196    -0.000823414939
197    -1.45950746e-14
198    0.00185512059
199    0.000136746412
200    -0.000483877204
201    -2.76406895e-14
202    -1.56973802e-05
203    -4.09380304e-16
204    5.29106191e-05
205    -5.03545924e-16
206    -2.24377266e-06
207    1.18425911e-06
208    9.06453259e-06
209    4.40747594e-05
210    0.000150932048
211    0.000353428841
212    0.00011538317
213    0.00053211843
214    -3.71540566e-06
215    -2.09294035e-05
216    1.67577371e-16
217    7.05948628e-05
218    6.96801236e-06
219    7.03920879e-05
220    2.45262614e-15
221    -0.000108785596
222    -9.44249573e-05
223    -0.000119258297
224    9.08936498e-16
225    -0.000530854975
226    -0.000361839098
227    -0.000215928302
228    -1.18930291e-14
229    -0.000572476107
230    -0.000407392923
231    0.000179942461
232    -3.31095629e-14
233    7.95328713e-06
234    4.73143134e-16
235    -6.0005153e-06
236    -2.16460664e-16
237    -2.54095123e-05
238    -6.00905067e-10
239    3.7476009e-08
240    -1.15726449e-07
241    8.02982873e-07
242    -8.3924553e-06
243    -3.89294848e-05
244    2.4398682e-05
245    1.38422953e-06
246    -1.77344478e-05
247    5.03279176e-16
248    7.48241309e-05
249    2.47308848e-06
250    7.70505612e-05
251    2.92759404e-15
252    -0.000273947881
253    0.000184363659
254    -0.000111258272
255    -6.69677822e-16
256    0.000276404643
257    3.20496713e-05
258    -9.29978675e-05
259    -9.66359331e-15
260    0.000373517937
261    -0.000272988233
262    -0.000498196314
263    -7.03273824e-14
264    -8.52073962e-06
265    4.39403558e-16
266    -1.14266594e-06
267    -2.62331926e-17
268    -3.71521012e-05
269    7.36674093e-06
270    -1.50410379e-05
271    -0.00010666051
272    -9.09412041e-05
273    -2.10348376e-06
274    5.33944395e-06
275    4.55509424e-16
[5D]