[Molden Format]
[Atoms] (Angs)
  C      1    6     -0.00714236     -1.70213747     -0.00000000
  H      2    1     -2.06882847     -1.44022412      0.00000000
  H      3    1     -0.12337987     -2.77567521      0.00000000
  H      4    1      0.04651892      1.98813947     -0.00000000
  C      5    6     -1.21953563      0.40211669      0.00000000
  O      6    8     -2.25921553      1.03043814      0.00000000
  C      7    6      1.28797806      0.34644937     -0.00000000
  O      8    8      2.31273661      1.00537216     -0.00000000
  N      9    7      0.03446295      0.97739857     -0.00000000
  N     10    7     -1.17287765     -0.98229824      0.00000000
  C     11    6      1.20107039     -1.10433419     -0.00000000
  H     12    1      2.11220096     -1.67699125     -0.00000000
[GTO]
1    0
S    1    1.000000
   4.56324000E+03    1.96665000E-03 
S    1    1.000000
   6.82024000E+02    1.52306000E-02 
S    1    1.000000
   1.54973000E+02    7.61269000E-02 
S    1    1.000000
   4.44553000E+01    2.60801000E-01 
S    1    1.000000
   1.30290000E+01    6.16462000E-01 
S    1    1.000000
   1.82773000E+00    2.21006000E-01 
SP   3    1.000000
   2.09642000E+01    1.14660000E-01   4.02487000E-02 
   4.80331000E+00    9.19999000E-01   2.37594000E-01 
   1.45933000E+00   -3.03068000E-03   8.15854000E-01 
SP   1    1.000000
   4.83456000E-01    1.00000000E+00   1.00000000E+00 
SP   1    1.000000
   1.45585000E-01    1.00000000E+00   1.00000000E+00 
SP   1    1.000000
   4.38000000E-02    1.00000000E+00   1.00000000E+00 
SP   1    1.000000
   1.31927711E-02    1.00000000E+00   1.00000000E+00 
D    1    1.000000
   6.26000000E-01    1.00000000E+00 

2    0
S    3    1.000000
   3.38650000E+01    2.54938000E-02 
   5.09479000E+00    1.90373000E-01 
   1.15879000E+00    8.52161000E-01 
S    1    1.000000
   3.25840000E-01    1.00000000E+00 
S    1    1.000000
   1.02741000E-01    1.00000000E+00 
S    1    1.000000
   3.60000000E-02    1.00000000E+00 
P    1    1.000000
   7.50000000E-01    1.00000000E+00 

3    0
S    3    1.000000
   3.38650000E+01    2.54938000E-02 
   5.09479000E+00    1.90373000E-01 
   1.15879000E+00    8.52161000E-01 
S    1    1.000000
   3.25840000E-01    1.00000000E+00 
S    1    1.000000
   1.02741000E-01    1.00000000E+00 
S    1    1.000000
   3.60000000E-02    1.00000000E+00 
P    1    1.000000
   7.50000000E-01    1.00000000E+00 

4    0
S    3    1.000000
   3.38650000E+01    2.54938000E-02 
   5.09479000E+00    1.90373000E-01 
   1.15879000E+00    8.52161000E-01 
S    1    1.000000
   3.25840000E-01    1.00000000E+00 
S    1    1.000000
   1.02741000E-01    1.00000000E+00 
S    1    1.000000
   3.60000000E-02    1.00000000E+00 
P    1    1.000000
   7.50000000E-01    1.00000000E+00 

5    0
S    1    1.000000
   4.56324000E+03    1.96665000E-03 
S    1    1.000000
   6.82024000E+02    1.52306000E-02 
S    1    1.000000
   1.54973000E+02    7.61269000E-02 
S    1    1.000000
   4.44553000E+01    2.60801000E-01 
S    1    1.000000
   1.30290000E+01    6.16462000E-01 
S    1    1.000000
   1.82773000E+00    2.21006000E-01 
SP   3    1.000000
   2.09642000E+01    1.14660000E-01   4.02487000E-02 
   4.80331000E+00    9.19999000E-01   2.37594000E-01 
   1.45933000E+00   -3.03068000E-03   8.15854000E-01 
SP   1    1.000000
   4.83456000E-01    1.00000000E+00   1.00000000E+00 
SP   1    1.000000
   1.45585000E-01    1.00000000E+00   1.00000000E+00 
SP   1    1.000000
   4.38000000E-02    1.00000000E+00   1.00000000E+00 
SP   1    1.000000
   1.31927711E-02    1.00000000E+00   1.00000000E+00 
D    1    1.000000
   6.26000000E-01    1.00000000E+00 

6    0
S    1    1.000000
   8.58850000E+03    1.89515000E-03 
S    1    1.000000
   1.29723000E+03    1.43859000E-02 
S    1    1.000000
   2.99296000E+02    7.07320000E-02 
S    1    1.000000
   8.73771000E+01    2.40001000E-01 
S    1    1.000000
   2.56789000E+01    5.94797000E-01 
S    1    1.000000
   3.74004000E+00    2.80802000E-01 
SP   3    1.000000
   4.21175000E+01    1.13889000E-01   3.65114000E-02 
   9.62837000E+00    9.20811000E-01   2.37153000E-01 
   2.85332000E+00   -3.27447000E-03   8.19702000E-01 
SP   1    1.000000
   9.05661000E-01    1.00000000E+00   1.00000000E+00 
SP   1    1.000000
   2.55611000E-01    1.00000000E+00   1.00000000E+00 
SP   1    1.000000
   8.45000000E-02    1.00000000E+00   1.00000000E+00 
SP   1    1.000000
   2.54518072E-02    1.00000000E+00   1.00000000E+00 
D    1    1.000000
   1.29200000E+00    1.00000000E+00 

7    0
S    1    1.000000
   4.56324000E+03    1.96665000E-03 
S    1    1.000000
   6.82024000E+02    1.52306000E-02 
S    1    1.000000
   1.54973000E+02    7.61269000E-02 
S    1    1.000000
   4.44553000E+01    2.60801000E-01 
S    1    1.000000
   1.30290000E+01    6.16462000E-01 
S    1    1.000000
   1.82773000E+00    2.21006000E-01 
SP   3    1.000000
   2.09642000E+01    1.14660000E-01   4.02487000E-02 
   4.80331000E+00    9.19999000E-01   2.37594000E-01 
   1.45933000E+00   -3.03068000E-03   8.15854000E-01 
SP   1    1.000000
   4.83456000E-01    1.00000000E+00   1.00000000E+00 
SP   1    1.000000
   1.45585000E-01    1.00000000E+00   1.00000000E+00 
SP   1    1.000000
   4.38000000E-02    1.00000000E+00   1.00000000E+00 
SP   1    1.000000
   1.31927711E-02    1.00000000E+00   1.00000000E+00 
D    1    1.000000
   6.26000000E-01    1.00000000E+00 

8    0
S    1    1.000000
   8.58850000E+03    1.89515000E-03 
S    1    1.000000
   1.29723000E+03    1.43859000E-02 
S    1    1.000000
   2.99296000E+02    7.07320000E-02 
S    1    1.000000
   8.73771000E+01    2.40001000E-01 
S    1    1.000000
   2.56789000E+01    5.94797000E-01 
S    1    1.000000
   3.74004000E+00    2.80802000E-01 
SP   3    1.000000
   4.21175000E+01    1.13889000E-01   3.65114000E-02 
   9.62837000E+00    9.20811000E-01   2.37153000E-01 
   2.85332000E+00   -3.27447000E-03   8.19702000E-01 
SP   1    1.000000
   9.05661000E-01    1.00000000E+00   1.00000000E+00 
SP   1    1.000000
   2.55611000E-01    1.00000000E+00   1.00000000E+00 
SP   1    1.000000
   8.45000000E-02    1.00000000E+00   1.00000000E+00 
SP   1    1.000000
   2.54518072E-02    1.00000000E+00   1.00000000E+00 
D    1    1.000000
   1.29200000E+00    1.00000000E+00 

9    0
S    1    1.000000
   6.29348000E+03    1.96979000E-03 
S    1    1.000000
   9.49044000E+02    1.49613000E-02 
S    1    1.000000
   2.18776000E+02    7.35006000E-02 
S    1    1.000000
   6.36916000E+01    2.48937000E-01 
S    1    1.000000
   1.88282000E+01    6.02460000E-01 
S    1    1.000000
   2.72023000E+00    2.56202000E-01 
SP   3    1.000000
   3.06331000E+01    1.11906000E-01   3.83119000E-02 
   7.02614000E+00    9.21666000E-01   2.37403000E-01 
   2.11205000E+00   -2.56919000E-03   8.17592000E-01 
SP   1    1.000000
   6.84009000E-01    1.00000000E+00   1.00000000E+00 
SP   1    1.000000
   2.00878000E-01    1.00000000E+00   1.00000000E+00 
SP   1    1.000000
   6.39000000E-02    1.00000000E+00   1.00000000E+00 
SP   1    1.000000
   1.92469880E-02    1.00000000E+00   1.00000000E+00 
D    1    1.000000
   9.13000000E-01    1.00000000E+00 

10    0
S    1    1.000000
   6.29348000E+03    1.96979000E-03 
S    1    1.000000
   9.49044000E+02    1.49613000E-02 
S    1    1.000000
   2.18776000E+02    7.35006000E-02 
S    1    1.000000
   6.36916000E+01    2.48937000E-01 
S    1    1.000000
   1.88282000E+01    6.02460000E-01 
S    1    1.000000
   2.72023000E+00    2.56202000E-01 
SP   3    1.000000
   3.06331000E+01    1.11906000E-01   3.83119000E-02 
   7.02614000E+00    9.21666000E-01   2.37403000E-01 
   2.11205000E+00   -2.56919000E-03   8.17592000E-01 
SP   1    1.000000
   6.84009000E-01    1.00000000E+00   1.00000000E+00 
SP   1    1.000000
   2.00878000E-01    1.00000000E+00   1.00000000E+00 
SP   1    1.000000
   6.39000000E-02    1.00000000E+00   1.00000000E+00 
SP   1    1.000000
   1.92469880E-02    1.00000000E+00   1.00000000E+00 
D    1    1.000000
   9.13000000E-01    1.00000000E+00 

11    0
S    1    1.000000
   4.56324000E+03    1.96665000E-03 
S    1    1.000000
   6.82024000E+02    1.52306000E-02 
S    1    1.000000
   1.54973000E+02    7.61269000E-02 
S    1    1.000000
   4.44553000E+01    2.60801000E-01 
S    1    1.000000
   1.30290000E+01    6.16462000E-01 
S    1    1.000000
   1.82773000E+00    2.21006000E-01 
SP   3    1.000000
   2.09642000E+01    1.14660000E-01   4.02487000E-02 
   4.80331000E+00    9.19999000E-01   2.37594000E-01 
   1.45933000E+00   -3.03068000E-03   8.15854000E-01 
SP   1    1.000000
   4.83456000E-01    1.00000000E+00   1.00000000E+00 
SP   1    1.000000
   1.45585000E-01    1.00000000E+00   1.00000000E+00 
SP   1    1.000000
   4.38000000E-02    1.00000000E+00   1.00000000E+00 
SP   1    1.000000
   1.31927711E-02    1.00000000E+00   1.00000000E+00 
D    1    1.000000
   6.26000000E-01    1.00000000E+00 

12    0
S    3    1.000000
   3.38650000E+01    2.54938000E-02 
   5.09479000E+00    1.90373000E-01 
   1.15879000E+00    8.52161000E-01 
S    1    1.000000
   3.25840000E-01    1.00000000E+00 
S    1    1.000000
   1.02741000E-01    1.00000000E+00 
S    1    1.000000
   3.60000000E-02    1.00000000E+00 
P    1    1.000000
   7.50000000E-01    1.00000000E+00 

[MO]
Sym=X
Ene=0.927096
Spin=Alpha
Occup=1
1    1.89446604e-07
2    9.4908443e-07
3    2.84588503e-06
4    4.8702887e-06
5    -3.7871504e-05
6    -4.81855693e-06
7    -4.29564759e-05
8    2.92012894e-05
9    1.16076246e-15
10    0.000233247577
11    -0.000326271569
12    0.000187781793
13    3.05496963e-15
14    -0.000220277163
15    0.000159944404
16    2.15869976e-05
17    1.55056476e-15
18    -0.00195408091
19    -8.26522708e-05
20    -0.00117833442
21    1.57818745e-14
22    0.000165382242
23    0.00015076872
24    -0.000356387496
25    9.95199975e-14
26    -0.000197038972
27    -4.85046036e-16
28    -8.13083499e-06
29    7.55904517e-16
30    7.95479986e-05
31    0.000247532364
32    7.8094461e-05
33    0.000319973381
34    0.000397740138
35    0.000110883144
36    4.54150736e-05
37    -1.92078197e-16
38    1.01780003e-05
39    0.000133148662
40    -0.000147284427
41    -0.000834333396
42    -1.61602509e-05
43    5.95099608e-05
44    1.08105596e-15
45    3.98384889e-06
46    -8.69622711e-06
47    -0.00021066583
48    -0.000341461704
49    -1.79294655e-06
50    -4.52195131e-07
51    -1.54102912e-15
52    2.17663702e-08
53    1.74635509e-07
54    7.64656436e-07
55    2.70171409e-06
56    2.16399018e-06
57    -3.98866934e-05
58    -3.4205336e-06
59    5.70718772e-07
60    -5.63483068e-05
61    -2.46395762e-15
62    0.000262924545
63    1.65548133e-05
64    -0.000301226834
65    -7.75705694e-15
66    -0.000194462391
67    0.000137887014
68    5.5766134e-05
69    -2.50426588e-15
70    -0.000705089701
71    -0.000343434514
72    0.000291025945
73    2.41126916e-14
74    -0.000906608622
75    -0.000326056347
76    -0.000156441823
77    -3.82392294e-14
78    -3.28264015e-05
79    -8.86124425e-16
80    -7.85561307e-06
81    6.04596983e-16
82    -0.000177182266
83    7.47060129e-09
84    7.22195797e-08
85    2.46071108e-07
86    1.25255473e-06
87    -8.51138172e-07
88    -1.21389891e-05
89    1.36298147e-05
90    -4.05741623e-06
91    1.65262925e-05
92    -1.58413326e-15
93    1.3551593e-05
94    2.30833461e-05
95    -2.65622644e-05
96    -5.29620193e-15
97    9.84530439e-05
98    1.14102641e-05
99    -1.30298869e-05
100    -5.60213461e-16
101    -2.47121268e-05
102    2.35364001e-05
103    -2.36608383e-05
104    -2.01020876e-14
105    -0.000688502388
106    -9.16671165e-05
107    2.23881636e-05
108    2.2372038e-14
109    -1.76610606e-05
110    3.42269339e-16
111    -5.19033855e-06
112    -7.10439097e-16
113    -1.14247141e-05
114    -6.58460008e-10
115    7.43866984e-09
116    -5.29585706e-08
117    1.72411959e-07
118    -2.71791155e-06
119    -1.28253334e-05
120    7.2864746e-06
121    5.55170723e-06
122    6.53281264e-06
123    -3.64443694e-16
124    1.43024581e-05
125    -2.09958909e-05
126    -3.33796804e-05
127    -6.87589743e-16
128    0.000277402184
129    2.02518471e-05
130    3.38404571e-05
131    7.42051349e-16
132    0.00127474695
133    -0.000516859638
134    -0.000190985467
135    1.471375e-14
136    -4.34362309e-05
137    -0.000473077801
138    0.000182288893
139    9.11555457e-14
140    -2.56707e-06
141    -9.50369372e-16
142    -7.2421772e-06
143    4.97037952e-16
144    -5.62113352e-06
145    -6.05546987e-10
146    2.04525154e-09
147    -3.79106983e-08
148    5.25899657e-08
149    -1.54985335e-06
150    -5.99280799e-06
151    3.5364657e-06
152    1.17626148e-06
153    7.27695308e-07
154    -2.99377024e-16
155    1.32644907e-05
156    -6.52165376e-06
157    -4.69913576e-06
158    -1.28764189e-16
159    -3.58466934e-05
160    2.09854913e-05
161    1.51228983e-05
162    -3.86988798e-16
163    -0.000185377275
164    9.1304848e-05
165    3.64293407e-05
166    -2.4031977e-15
167    0.000217601381
168    2.78370478e-05
169    5.57509412e-05
170    -1.03152046e-15
171    1.08505711e-06
172    -4.14879449e-18
173    6.9552859e-07
174    3.66136288e-16
175    7.27901257e-07
176    -1.18236608e-06
177    -8.95999268e-06
178    -4.42047964e-05
179    -0.000148860473
180    -0.00037017169
181    -0.000190805932
182    -0.000479034905
183    1.53158584e-05
184    1.38124278e-05
185    -1.86088195e-15
186    4.76739132e-05
187    -5.07531323e-05
188    -3.9052616e-05
189    -3.4353938e-15
190    -6.61786578e-05
191    1.68220839e-05
192    0.000102777566
193    -4.28466632e-15
194    -0.000589834646
195    4.45189451e-05
196    0.000501334451
197    -1.70342793e-14
198    -0.000518886133
199    -0.000409361976
200    0.000257481592
201    -2.88082585e-14
202    2.15903146e-05
203    6.56020296e-17
204    -8.11334077e-06
205    6.78189467e-16
206    7.29881283e-06
207    0.00109715558
208    0.00835375004
209    0.0409312917
210    0.138936365
211    0.335920112
212    0.144146339
213    0.467415089
214    0.00018038368
215    5.04786892e-07
216    -1.21415258e-16
217    0.00432901449
218    -8.89854312e-05
219    3.82475443e-05
220    -2.72825623e-15
221    -0.000437111887
222    1.06155489e-05
223    -3.43571197e-05
224    1.69637179e-15
225    0.00235611016
226    0.000911531403
227    0.000476343879
228    -2.03094085e-14
229    0.00163690985
230    0.000461711403
231    0.000209407409
232    -2.84825136e-14
233    1.15320311e-05
234    -9.13299206e-16
235    6.2988334e-05
236    3.5768867e-16
237    2.45087581e-06
238    -2.44804128e-09
239    3.19196451e-08
240    -2.07191326e-07
241    7.28453985e-07
242    -1.09128512e-05
243    -5.17143509e-05
244    2.91010411e-05
245    1.81848881e-05
246    3.43403576e-06
247    5.54430119e-16
248    0.000116830011
249    -0.000110517819
250    -3.55844388e-05
251    4.44101267e-15
252    -0.000212858757
253    0.000155022631
254    -5.11855262e-05
255    -1.69477473e-15
256    0.000859018615
257    -0.000105630121
258    0.000116957078
259    -1.20247876e-15
260    0.000428827262
261    0.000389724779
262    0.000593150377
263    -1.21087283e-13
264    1.62792164e-05
265    -1.06792966e-15
266    -9.76363531e-06
267    -5.61931395e-16
268    5.63852563e-05
269    4.06018495e-06
270    -5.68871261e-06
271    -7.5465031e-05
272    2.50560366e-05
273    -7.81723489e-06
274    -5.93292366e-06
275    9.8140438e-16
[5D]