[Molden Format]
[Atoms] (Angs)
  C      1    6     -0.00714236     -1.70213747     -0.00000000
  H      2    1     -2.06882847     -1.44022412      0.00000000
  H      3    1     -0.12337987     -2.77567521      0.00000000
  H      4    1      0.04651892      1.98813947     -0.00000000
  C      5    6     -1.21953563      0.40211669      0.00000000
  O      6    8     -2.25921553      1.03043814      0.00000000
  C      7    6      1.28797806      0.34644937     -0.00000000
  O      8    8      2.31273661      1.00537216     -0.00000000
  N      9    7      0.03446295      0.97739857     -0.00000000
  N     10    7     -1.17287765     -0.98229824      0.00000000
  C     11    6      1.20107039     -1.10433419     -0.00000000
  H     12    1      2.11220096     -1.67699125     -0.00000000
[GTO]
1    0
S    1    1.000000
   4.56324000E+03    1.96665000E-03 
S    1    1.000000
   6.82024000E+02    1.52306000E-02 
S    1    1.000000
   1.54973000E+02    7.61269000E-02 
S    1    1.000000
   4.44553000E+01    2.60801000E-01 
S    1    1.000000
   1.30290000E+01    6.16462000E-01 
S    1    1.000000
   1.82773000E+00    2.21006000E-01 
SP   3    1.000000
   2.09642000E+01    1.14660000E-01   4.02487000E-02 
   4.80331000E+00    9.19999000E-01   2.37594000E-01 
   1.45933000E+00   -3.03068000E-03   8.15854000E-01 
SP   1    1.000000
   4.83456000E-01    1.00000000E+00   1.00000000E+00 
SP   1    1.000000
   1.45585000E-01    1.00000000E+00   1.00000000E+00 
SP   1    1.000000
   4.38000000E-02    1.00000000E+00   1.00000000E+00 
SP   1    1.000000
   1.31927711E-02    1.00000000E+00   1.00000000E+00 
D    1    1.000000
   6.26000000E-01    1.00000000E+00 

2    0
S    3    1.000000
   3.38650000E+01    2.54938000E-02 
   5.09479000E+00    1.90373000E-01 
   1.15879000E+00    8.52161000E-01 
S    1    1.000000
   3.25840000E-01    1.00000000E+00 
S    1    1.000000
   1.02741000E-01    1.00000000E+00 
S    1    1.000000
   3.60000000E-02    1.00000000E+00 
P    1    1.000000
   7.50000000E-01    1.00000000E+00 

3    0
S    3    1.000000
   3.38650000E+01    2.54938000E-02 
   5.09479000E+00    1.90373000E-01 
   1.15879000E+00    8.52161000E-01 
S    1    1.000000
   3.25840000E-01    1.00000000E+00 
S    1    1.000000
   1.02741000E-01    1.00000000E+00 
S    1    1.000000
   3.60000000E-02    1.00000000E+00 
P    1    1.000000
   7.50000000E-01    1.00000000E+00 

4    0
S    3    1.000000
   3.38650000E+01    2.54938000E-02 
   5.09479000E+00    1.90373000E-01 
   1.15879000E+00    8.52161000E-01 
S    1    1.000000
   3.25840000E-01    1.00000000E+00 
S    1    1.000000
   1.02741000E-01    1.00000000E+00 
S    1    1.000000
   3.60000000E-02    1.00000000E+00 
P    1    1.000000
   7.50000000E-01    1.00000000E+00 

5    0
S    1    1.000000
   4.56324000E+03    1.96665000E-03 
S    1    1.000000
   6.82024000E+02    1.52306000E-02 
S    1    1.000000
   1.54973000E+02    7.61269000E-02 
S    1    1.000000
   4.44553000E+01    2.60801000E-01 
S    1    1.000000
   1.30290000E+01    6.16462000E-01 
S    1    1.000000
   1.82773000E+00    2.21006000E-01 
SP   3    1.000000
   2.09642000E+01    1.14660000E-01   4.02487000E-02 
   4.80331000E+00    9.19999000E-01   2.37594000E-01 
   1.45933000E+00   -3.03068000E-03   8.15854000E-01 
SP   1    1.000000
   4.83456000E-01    1.00000000E+00   1.00000000E+00 
SP   1    1.000000
   1.45585000E-01    1.00000000E+00   1.00000000E+00 
SP   1    1.000000
   4.38000000E-02    1.00000000E+00   1.00000000E+00 
SP   1    1.000000
   1.31927711E-02    1.00000000E+00   1.00000000E+00 
D    1    1.000000
   6.26000000E-01    1.00000000E+00 

6    0
S    1    1.000000
   8.58850000E+03    1.89515000E-03 
S    1    1.000000
   1.29723000E+03    1.43859000E-02 
S    1    1.000000
   2.99296000E+02    7.07320000E-02 
S    1    1.000000
   8.73771000E+01    2.40001000E-01 
S    1    1.000000
   2.56789000E+01    5.94797000E-01 
S    1    1.000000
   3.74004000E+00    2.80802000E-01 
SP   3    1.000000
   4.21175000E+01    1.13889000E-01   3.65114000E-02 
   9.62837000E+00    9.20811000E-01   2.37153000E-01 
   2.85332000E+00   -3.27447000E-03   8.19702000E-01 
SP   1    1.000000
   9.05661000E-01    1.00000000E+00   1.00000000E+00 
SP   1    1.000000
   2.55611000E-01    1.00000000E+00   1.00000000E+00 
SP   1    1.000000
   8.45000000E-02    1.00000000E+00   1.00000000E+00 
SP   1    1.000000
   2.54518072E-02    1.00000000E+00   1.00000000E+00 
D    1    1.000000
   1.29200000E+00    1.00000000E+00 

7    0
S    1    1.000000
   4.56324000E+03    1.96665000E-03 
S    1    1.000000
   6.82024000E+02    1.52306000E-02 
S    1    1.000000
   1.54973000E+02    7.61269000E-02 
S    1    1.000000
   4.44553000E+01    2.60801000E-01 
S    1    1.000000
   1.30290000E+01    6.16462000E-01 
S    1    1.000000
   1.82773000E+00    2.21006000E-01 
SP   3    1.000000
   2.09642000E+01    1.14660000E-01   4.02487000E-02 
   4.80331000E+00    9.19999000E-01   2.37594000E-01 
   1.45933000E+00   -3.03068000E-03   8.15854000E-01 
SP   1    1.000000
   4.83456000E-01    1.00000000E+00   1.00000000E+00 
SP   1    1.000000
   1.45585000E-01    1.00000000E+00   1.00000000E+00 
SP   1    1.000000
   4.38000000E-02    1.00000000E+00   1.00000000E+00 
SP   1    1.000000
   1.31927711E-02    1.00000000E+00   1.00000000E+00 
D    1    1.000000
   6.26000000E-01    1.00000000E+00 

8    0
S    1    1.000000
   8.58850000E+03    1.89515000E-03 
S    1    1.000000
   1.29723000E+03    1.43859000E-02 
S    1    1.000000
   2.99296000E+02    7.07320000E-02 
S    1    1.000000
   8.73771000E+01    2.40001000E-01 
S    1    1.000000
   2.56789000E+01    5.94797000E-01 
S    1    1.000000
   3.74004000E+00    2.80802000E-01 
SP   3    1.000000
   4.21175000E+01    1.13889000E-01   3.65114000E-02 
   9.62837000E+00    9.20811000E-01   2.37153000E-01 
   2.85332000E+00   -3.27447000E-03   8.19702000E-01 
SP   1    1.000000
   9.05661000E-01    1.00000000E+00   1.00000000E+00 
SP   1    1.000000
   2.55611000E-01    1.00000000E+00   1.00000000E+00 
SP   1    1.000000
   8.45000000E-02    1.00000000E+00   1.00000000E+00 
SP   1    1.000000
   2.54518072E-02    1.00000000E+00   1.00000000E+00 
D    1    1.000000
   1.29200000E+00    1.00000000E+00 

9    0
S    1    1.000000
   6.29348000E+03    1.96979000E-03 
S    1    1.000000
   9.49044000E+02    1.49613000E-02 
S    1    1.000000
   2.18776000E+02    7.35006000E-02 
S    1    1.000000
   6.36916000E+01    2.48937000E-01 
S    1    1.000000
   1.88282000E+01    6.02460000E-01 
S    1    1.000000
   2.72023000E+00    2.56202000E-01 
SP   3    1.000000
   3.06331000E+01    1.11906000E-01   3.83119000E-02 
   7.02614000E+00    9.21666000E-01   2.37403000E-01 
   2.11205000E+00   -2.56919000E-03   8.17592000E-01 
SP   1    1.000000
   6.84009000E-01    1.00000000E+00   1.00000000E+00 
SP   1    1.000000
   2.00878000E-01    1.00000000E+00   1.00000000E+00 
SP   1    1.000000
   6.39000000E-02    1.00000000E+00   1.00000000E+00 
SP   1    1.000000
   1.92469880E-02    1.00000000E+00   1.00000000E+00 
D    1    1.000000
   9.13000000E-01    1.00000000E+00 

10    0
S    1    1.000000
   6.29348000E+03    1.96979000E-03 
S    1    1.000000
   9.49044000E+02    1.49613000E-02 
S    1    1.000000
   2.18776000E+02    7.35006000E-02 
S    1    1.000000
   6.36916000E+01    2.48937000E-01 
S    1    1.000000
   1.88282000E+01    6.02460000E-01 
S    1    1.000000
   2.72023000E+00    2.56202000E-01 
SP   3    1.000000
   3.06331000E+01    1.11906000E-01   3.83119000E-02 
   7.02614000E+00    9.21666000E-01   2.37403000E-01 
   2.11205000E+00   -2.56919000E-03   8.17592000E-01 
SP   1    1.000000
   6.84009000E-01    1.00000000E+00   1.00000000E+00 
SP   1    1.000000
   2.00878000E-01    1.00000000E+00   1.00000000E+00 
SP   1    1.000000
   6.39000000E-02    1.00000000E+00   1.00000000E+00 
SP   1    1.000000
   1.92469880E-02    1.00000000E+00   1.00000000E+00 
D    1    1.000000
   9.13000000E-01    1.00000000E+00 

11    0
S    1    1.000000
   4.56324000E+03    1.96665000E-03 
S    1    1.000000
   6.82024000E+02    1.52306000E-02 
S    1    1.000000
   1.54973000E+02    7.61269000E-02 
S    1    1.000000
   4.44553000E+01    2.60801000E-01 
S    1    1.000000
   1.30290000E+01    6.16462000E-01 
S    1    1.000000
   1.82773000E+00    2.21006000E-01 
SP   3    1.000000
   2.09642000E+01    1.14660000E-01   4.02487000E-02 
   4.80331000E+00    9.19999000E-01   2.37594000E-01 
   1.45933000E+00   -3.03068000E-03   8.15854000E-01 
SP   1    1.000000
   4.83456000E-01    1.00000000E+00   1.00000000E+00 
SP   1    1.000000
   1.45585000E-01    1.00000000E+00   1.00000000E+00 
SP   1    1.000000
   4.38000000E-02    1.00000000E+00   1.00000000E+00 
SP   1    1.000000
   1.31927711E-02    1.00000000E+00   1.00000000E+00 
D    1    1.000000
   6.26000000E-01    1.00000000E+00 

12    0
S    3    1.000000
   3.38650000E+01    2.54938000E-02 
   5.09479000E+00    1.90373000E-01 
   1.15879000E+00    8.52161000E-01 
S    1    1.000000
   3.25840000E-01    1.00000000E+00 
S    1    1.000000
   1.02741000E-01    1.00000000E+00 
S    1    1.000000
   3.60000000E-02    1.00000000E+00 
P    1    1.000000
   7.50000000E-01    1.00000000E+00 

[MO]
Sym=X
Ene=0.927305
Spin=Alpha
Occup=1
1    -1.02078793e-09
2    1.2661004e-08
3    -8.53525375e-08
4    2.92017315e-07
5    -4.35225658e-06
6    -1.99370874e-05
7    1.1353375e-05
8    -8.19031613e-07
9    -7.68349005e-06
10    -5.69844083e-16
11    3.37390953e-05
12    1.09471432e-05
13    3.58104888e-05
14    9.40834295e-16
15    0.0002151361
16    4.99603977e-05
17    7.52409465e-05
18    1.34627176e-15
19    0.000876589969
20    -6.2403896e-05
21    0.000764033731
22    1.65614515e-14
23    4.9466907e-05
24    -0.000379645618
25    0.000280647517
26    5.6319631e-14
27    3.44375162e-07
28    9.14931845e-16
29    -6.08836049e-06
30    -3.77479604e-16
31    3.01188883e-06
32    6.901594e-06
33    -2.71338335e-05
34    -0.00018094818
35    -0.000292188428
36    -2.4890952e-06
37    1.87682424e-06
38    7.71550303e-16
39    3.21911772e-06
40    2.36985469e-06
41    4.7120947e-05
42    0.000653242024
43    -1.46634444e-06
44    1.80880166e-06
45    -3.86667501e-16
46    0.000247048377
47    0.000101587987
48    0.000241162461
49    0.000307873844
50    -4.21999952e-06
51    -0.000124203673
52    2.04625607e-15
53    2.24138383e-08
54    1.87550635e-07
55    7.7020256e-07
56    2.91434122e-06
57    1.94957786e-08
58    -5.63143444e-05
59    3.17002516e-06
60    4.62290184e-05
61    2.25183669e-05
62    2.70236359e-15
63    0.000286761081
64    0.000309828597
65    0.000128741894
66    2.38202831e-15
67    -0.000171803073
68    -5.04171789e-05
69    -0.000190194626
70    9.01815751e-15
71    -0.000921648694
72    -0.000499667807
73    0.000187583211
74    3.47295203e-14
75    -0.000940825077
76    -2.92209421e-05
77    0.000364025716
78    -8.7056835e-15
79    0.000139481873
80    2.54280593e-17
81    -1.83822797e-05
82    8.3900896e-16
83    0.000145882579
84    7.3652893e-09
85    7.34155216e-08
86    2.3755073e-07
87    1.27766556e-06
88    -1.3020791e-06
89    -1.40497653e-05
90    1.47601508e-05
91    -1.70275799e-05
92    -3.87253577e-06
93    1.05851985e-15
94    1.84974169e-05
95    3.83079581e-05
96    -9.19888686e-06
97    7.90172857e-16
98    8.85416557e-05
99    1.25372157e-05
100    1.02690897e-05
101    5.49579043e-15
102    -8.03123569e-05
103    2.54962501e-05
104    -2.26410484e-06
105    -8.1133358e-15
106    -0.000586371265
107    -4.15478856e-05
108    6.47123571e-05
109    9.51234717e-15
110    -2.03663769e-07
111    -3.35584044e-16
112    -4.39817571e-06
113    5.15892687e-16
114    2.34844379e-05
115    2.02136822e-08
116    1.75586671e-07
117    6.8056127e-07
118    2.836695e-06
119    5.44851347e-07
120    -3.6011434e-05
121    9.3221972e-07
122    -4.5836319e-05
123    2.7918259e-05
124    2.31771393e-15
125    0.000236566184
126    -0.000242238753
127    0.000122840595
128    5.15519587e-15
129    -0.000179210224
130    -1.18572758e-05
131    -0.00010329467
132    5.97489745e-15
133    -0.00165307257
134    0.000731567351
135    0.000301407925
136    2.58538394e-14
137    0.000186088217
138    0.000322167432
139    -3.50243812e-05
140    4.89502771e-14
141    -0.000117121536
142    2.52871635e-16
143    -1.86678854e-06
144    -7.85138031e-16
145    0.000113147075
146    7.39897071e-09
147    7.21960249e-08
148    2.42125379e-07
149    1.2533241e-06
150    -9.83420011e-07
151    -1.26695784e-05
152    1.38737198e-05
153    1.67292803e-05
154    -3.53929066e-06
155    1.35377168e-15
156    1.53482147e-05
157    -3.52637666e-05
158    -1.20987395e-05
159    2.71858519e-15
160    8.16911943e-05
161    1.93684781e-06
162    -5.41264122e-06
163    3.14146401e-15
164    -6.17398302e-05
165    -4.77834033e-05
166    -1.0168127e-05
167    1.75630403e-15
168    -0.000581383053
169    3.67946133e-05
170    2.20804209e-05
171    -3.65039675e-15
172    2.92011339e-06
173    -1.39806744e-16
174    -5.73454654e-06
175    -6.57928301e-16
176    1.7821979e-05
177    0.00109716618
178    0.00835381293
179    0.0409316958
180    0.138936268
181    0.33592162
182    0.144117182
183    0.467440214
184    -0.000169198849
185    -0.000149582898
186    2.89317727e-15
187    0.00432141022
188    0.000113014965
189    4.22901263e-05
190    3.14358037e-15
191    -0.000407166031
192    -8.35730467e-05
193    -1.91104044e-05
194    8.21742999e-15
195    0.00226159742
196    -3.70465404e-06
197    -0.000823414939
198    -1.45950746e-14
199    0.00185512059
200    0.000136746412
201    -0.000483877204
202    -2.76406895e-14
203    -1.56973802e-05
204    -4.09380304e-16
205    5.29106191e-05
206    -5.03545924e-16
207    -2.24377266e-06
208    1.18425911e-06
209    9.06453259e-06
210    4.40747594e-05
211    0.000150932048
212    0.000353428841
213    0.00011538317
214    0.00053211843
215    -3.71540566e-06
216    -2.09294035e-05
217    1.67577371e-16
218    7.05948628e-05
219    6.96801236e-06
220    7.03920879e-05
221    2.45262614e-15
222    -0.000108785596
223    -9.44249573e-05
224    -0.000119258297
225    9.08936498e-16
226    -0.000530854975
227    -0.000361839098
228    -0.000215928302
229    -1.18930291e-14
230    -0.000572476107
231    -0.000407392923
232    0.000179942461
233    -3.31095629e-14
234    7.95328713e-06
235    4.73143134e-16
236    -6.0005153e-06
237    -2.16460664e-16
238    -2.54095123e-05
239    -6.00905067e-10
240    3.7476009e-08
241    -1.15726449e-07
242    8.02982873e-07
243    -8.3924553e-06
244    -3.89294848e-05
245    2.4398682e-05
246    1.38422953e-06
247    -1.77344478e-05
248    5.03279176e-16
249    7.48241309e-05
250    2.47308848e-06
251    7.70505612e-05
252    2.92759404e-15
253    -0.000273947881
254    0.000184363659
255    -0.000111258272
256    -6.69677822e-16
257    0.000276404643
258    3.20496713e-05
259    -9.29978675e-05
260    -9.66359331e-15
261    0.000373517937
262    -0.000272988233
263    -0.000498196314
264    -7.03273824e-14
265    -8.52073962e-06
266    4.39403558e-16
267    -1.14266594e-06
268    -2.62331926e-17
269    -3.71521012e-05
270    7.36674093e-06
271    -1.50410379e-05
272    -0.00010666051
273    -9.09412041e-05
274    -2.10348376e-06
275    5.33944395e-06
276    4.55509424e-16
Sym=X
Ene=0.927096
Spin=Alpha
Occup=1
1    2.56224771e-08
2    1.89446604e-07
3    9.4908443e-07
4    2.84588503e-06
5    4.8702887e-06
6    -3.7871504e-05
7    -4.81855693e-06
8    -4.29564759e-05
9    2.92012894e-05
10    1.16076246e-15
11    0.000233247577
12    -0.000326271569
13    0.000187781793
14    3.05496963e-15
15    -0.000220277163
16    0.000159944404
17    2.15869976e-05
18    1.55056476e-15
19    -0.00195408091
20    -8.26522708e-05
21    -0.00117833442
22    1.57818745e-14
23    0.000165382242
24    0.00015076872
25    -0.000356387496
26    9.95199975e-14
27    -0.000197038972
28    -4.85046036e-16
29    -8.13083499e-06
30    7.55904517e-16
31    7.95479986e-05
32    0.000247532364
33    7.8094461e-05
34    0.000319973381
35    0.000397740138
36    0.000110883144
37    4.54150736e-05
38    -1.92078197e-16
39    1.01780003e-05
40    0.000133148662
41    -0.000147284427
42    -0.000834333396
43    -1.61602509e-05
44    5.95099608e-05
45    1.08105596e-15
46    3.98384889e-06
47    -8.69622711e-06
48    -0.00021066583
49    -0.000341461704
50    -1.79294655e-06
51    -4.52195131e-07
52    -1.54102912e-15
53    2.17663702e-08
54    1.74635509e-07
55    7.64656436e-07
56    2.70171409e-06
57    2.16399018e-06
58    -3.98866934e-05
59    -3.4205336e-06
60    5.70718772e-07
61    -5.63483068e-05
62    -2.46395762e-15
63    0.000262924545
64    1.65548133e-05
65    -0.000301226834
66    -7.75705694e-15
67    -0.000194462391
68    0.000137887014
69    5.5766134e-05
70    -2.50426588e-15
71    -0.000705089701
72    -0.000343434514
73    0.000291025945
74    2.41126916e-14
75    -0.000906608622
76    -0.000326056347
77    -0.000156441823
78    -3.82392294e-14
79    -3.28264015e-05
80    -8.86124425e-16
81    -7.85561307e-06
82    6.04596983e-16
83    -0.000177182266
84    7.47060129e-09
85    7.22195797e-08
86    2.46071108e-07
87    1.25255473e-06
88    -8.51138172e-07
89    -1.21389891e-05
90    1.36298147e-05
91    -4.05741623e-06
92    1.65262925e-05
93    -1.58413326e-15
94    1.3551593e-05
95    2.30833461e-05
96    -2.65622644e-05
97    -5.29620193e-15
98    9.84530439e-05
99    1.14102641e-05
100    -1.30298869e-05
101    -5.60213461e-16
102    -2.47121268e-05
103    2.35364001e-05
104    -2.36608383e-05
105    -2.01020876e-14
106    -0.000688502388
107    -9.16671165e-05
108    2.23881636e-05
109    2.2372038e-14
110    -1.76610606e-05
111    3.42269339e-16
112    -5.19033855e-06
113    -7.10439097e-16
114    -1.14247141e-05
115    -6.58460008e-10
116    7.43866984e-09
117    -5.29585706e-08
118    1.72411959e-07
119    -2.71791155e-06
120    -1.28253334e-05
121    7.2864746e-06
122    5.55170723e-06
123    6.53281264e-06
124    -3.64443694e-16
125    1.43024581e-05
126    -2.09958909e-05
127    -3.33796804e-05
128    -6.87589743e-16
129    0.000277402184
130    2.02518471e-05
131    3.38404571e-05
132    7.42051349e-16
133    0.00127474695
134    -0.000516859638
135    -0.000190985467
136    1.471375e-14
137    -4.34362309e-05
138    -0.000473077801
139    0.000182288893
140    9.11555457e-14
141    -2.56707e-06
142    -9.50369372e-16
143    -7.2421772e-06
144    4.97037952e-16
145    -5.62113352e-06
146    -6.05546987e-10
147    2.04525154e-09
148    -3.79106983e-08
149    5.25899657e-08
150    -1.54985335e-06
151    -5.99280799e-06
152    3.5364657e-06
153    1.17626148e-06
154    7.27695308e-07
155    -2.99377024e-16
156    1.32644907e-05
157    -6.52165376e-06
158    -4.69913576e-06
159    -1.28764189e-16
160    -3.58466934e-05
161    2.09854913e-05
162    1.51228983e-05
163    -3.86988798e-16
164    -0.000185377275
165    9.1304848e-05
166    3.64293407e-05
167    -2.4031977e-15
168    0.000217601381
169    2.78370478e-05
170    5.57509412e-05
171    -1.03152046e-15
172    1.08505711e-06
173    -4.14879449e-18
174    6.9552859e-07
175    3.66136288e-16
176    7.27901257e-07
177    -1.18236608e-06
178    -8.95999268e-06
179    -4.42047964e-05
180    -0.000148860473
181    -0.00037017169
182    -0.000190805932
183    -0.000479034905
184    1.53158584e-05
185    1.38124278e-05
186    -1.86088195e-15
187    4.76739132e-05
188    -5.07531323e-05
189    -3.9052616e-05
190    -3.4353938e-15
191    -6.61786578e-05
192    1.68220839e-05
193    0.000102777566
194    -4.28466632e-15
195    -0.000589834646
196    4.45189451e-05
197    0.000501334451
198    -1.70342793e-14
199    -0.000518886133
200    -0.000409361976
201    0.000257481592
202    -2.88082585e-14
203    2.15903146e-05
204    6.56020296e-17
205    -8.11334077e-06
206    6.78189467e-16
207    7.29881283e-06
208    0.00109715558
209    0.00835375004
210    0.0409312917
211    0.138936365
212    0.335920112
213    0.144146339
214    0.467415089
215    0.00018038368
216    5.04786892e-07
217    -1.21415258e-16
218    0.00432901449
219    -8.89854312e-05
220    3.82475443e-05
221    -2.72825623e-15
222    -0.000437111887
223    1.06155489e-05
224    -3.43571197e-05
225    1.69637179e-15
226    0.00235611016
227    0.000911531403
228    0.000476343879
229    -2.03094085e-14
230    0.00163690985
231    0.000461711403
232    0.000209407409
233    -2.84825136e-14
234    1.15320311e-05
235    -9.13299206e-16
236    6.2988334e-05
237    3.5768867e-16
238    2.45087581e-06
239    -2.44804128e-09
240    3.19196451e-08
241    -2.07191326e-07
242    7.28453985e-07
243    -1.09128512e-05
244    -5.17143509e-05
245    2.91010411e-05
246    1.81848881e-05
247    3.43403576e-06
248    5.54430119e-16
249    0.000116830011
250    -0.000110517819
251    -3.55844388e-05
252    4.44101267e-15
253    -0.000212858757
254    0.000155022631
255    -5.11855262e-05
256    -1.69477473e-15
257    0.000859018615
258    -0.000105630121
259    0.000116957078
260    -1.20247876e-15
261    0.000428827262
262    0.000389724779
263    0.000593150377
264    -1.21087283e-13
265    1.62792164e-05
266    -1.06792966e-15
267    -9.76363531e-06
268    -5.61931395e-16
269    5.63852563e-05
270    4.06018495e-06
271    -5.68871261e-06
272    -7.5465031e-05
273    2.50560366e-05
274    -7.81723489e-06
275    -5.93292366e-06
276    9.8140438e-16
[5D]