[Molden Format]
[Atoms] (Angs)
  C      1    6     -0.00714236     -1.70213747     -0.00000000
  H      2    1     -2.06882847     -1.44022412      0.00000000
  H      3    1     -0.12337987     -2.77567521      0.00000000
  H      4    1      0.04651892      1.98813947     -0.00000000
  C      5    6     -1.21953563      0.40211669      0.00000000
  O      6    8     -2.25921553      1.03043814      0.00000000
  C      7    6      1.28797806      0.34644937     -0.00000000
  O      8    8      2.31273661      1.00537216     -0.00000000
  N      9    7      0.03446295      0.97739857     -0.00000000
  N     10    7     -1.17287765     -0.98229824      0.00000000
  C     11    6      1.20107039     -1.10433419     -0.00000000
  H     12    1      2.11220096     -1.67699125     -0.00000000
[GTO]
1    0
S    1    1.000000
   4.56324000E+03    1.96665000E-03 
S    1    1.000000
   6.82024000E+02    1.52306000E-02 
S    1    1.000000
   1.54973000E+02    7.61269000E-02 
S    1    1.000000
   4.44553000E+01    2.60801000E-01 
S    1    1.000000
   1.30290000E+01    6.16462000E-01 
S    1    1.000000
   1.82773000E+00    2.21006000E-01 
SP   3    1.000000
   2.09642000E+01    1.14660000E-01   4.02487000E-02 
   4.80331000E+00    9.19999000E-01   2.37594000E-01 
   1.45933000E+00   -3.03068000E-03   8.15854000E-01 
SP   1    1.000000
   4.83456000E-01    1.00000000E+00   1.00000000E+00 
SP   1    1.000000
   1.45585000E-01    1.00000000E+00   1.00000000E+00 
SP   1    1.000000
   4.38000000E-02    1.00000000E+00   1.00000000E+00 
SP   1    1.000000
   1.31927711E-02    1.00000000E+00   1.00000000E+00 
D    1    1.000000
   6.26000000E-01    1.00000000E+00 

2    0
S    3    1.000000
   3.38650000E+01    2.54938000E-02 
   5.09479000E+00    1.90373000E-01 
   1.15879000E+00    8.52161000E-01 
S    1    1.000000
   3.25840000E-01    1.00000000E+00 
S    1    1.000000
   1.02741000E-01    1.00000000E+00 
S    1    1.000000
   3.60000000E-02    1.00000000E+00 
P    1    1.000000
   7.50000000E-01    1.00000000E+00 

3    0
S    3    1.000000
   3.38650000E+01    2.54938000E-02 
   5.09479000E+00    1.90373000E-01 
   1.15879000E+00    8.52161000E-01 
S    1    1.000000
   3.25840000E-01    1.00000000E+00 
S    1    1.000000
   1.02741000E-01    1.00000000E+00 
S    1    1.000000
   3.60000000E-02    1.00000000E+00 
P    1    1.000000
   7.50000000E-01    1.00000000E+00 

4    0
S    3    1.000000
   3.38650000E+01    2.54938000E-02 
   5.09479000E+00    1.90373000E-01 
   1.15879000E+00    8.52161000E-01 
S    1    1.000000
   3.25840000E-01    1.00000000E+00 
S    1    1.000000
   1.02741000E-01    1.00000000E+00 
S    1    1.000000
   3.60000000E-02    1.00000000E+00 
P    1    1.000000
   7.50000000E-01    1.00000000E+00 

5    0
S    1    1.000000
   4.56324000E+03    1.96665000E-03 
S    1    1.000000
   6.82024000E+02    1.52306000E-02 
S    1    1.000000
   1.54973000E+02    7.61269000E-02 
S    1    1.000000
   4.44553000E+01    2.60801000E-01 
S    1    1.000000
   1.30290000E+01    6.16462000E-01 
S    1    1.000000
   1.82773000E+00    2.21006000E-01 
SP   3    1.000000
   2.09642000E+01    1.14660000E-01   4.02487000E-02 
   4.80331000E+00    9.19999000E-01   2.37594000E-01 
   1.45933000E+00   -3.03068000E-03   8.15854000E-01 
SP   1    1.000000
   4.83456000E-01    1.00000000E+00   1.00000000E+00 
SP   1    1.000000
   1.45585000E-01    1.00000000E+00   1.00000000E+00 
SP   1    1.000000
   4.38000000E-02    1.00000000E+00   1.00000000E+00 
SP   1    1.000000
   1.31927711E-02    1.00000000E+00   1.00000000E+00 
D    1    1.000000
   6.26000000E-01    1.00000000E+00 

6    0
S    1    1.000000
   8.58850000E+03    1.89515000E-03 
S    1    1.000000
   1.29723000E+03    1.43859000E-02 
S    1    1.000000
   2.99296000E+02    7.07320000E-02 
S    1    1.000000
   8.73771000E+01    2.40001000E-01 
S    1    1.000000
   2.56789000E+01    5.94797000E-01 
S    1    1.000000
   3.74004000E+00    2.80802000E-01 
SP   3    1.000000
   4.21175000E+01    1.13889000E-01   3.65114000E-02 
   9.62837000E+00    9.20811000E-01   2.37153000E-01 
   2.85332000E+00   -3.27447000E-03   8.19702000E-01 
SP   1    1.000000
   9.05661000E-01    1.00000000E+00   1.00000000E+00 
SP   1    1.000000
   2.55611000E-01    1.00000000E+00   1.00000000E+00 
SP   1    1.000000
   8.45000000E-02    1.00000000E+00   1.00000000E+00 
SP   1    1.000000
   2.54518072E-02    1.00000000E+00   1.00000000E+00 
D    1    1.000000
   1.29200000E+00    1.00000000E+00 

7    0
S    1    1.000000
   4.56324000E+03    1.96665000E-03 
S    1    1.000000
   6.82024000E+02    1.52306000E-02 
S    1    1.000000
   1.54973000E+02    7.61269000E-02 
S    1    1.000000
   4.44553000E+01    2.60801000E-01 
S    1    1.000000
   1.30290000E+01    6.16462000E-01 
S    1    1.000000
   1.82773000E+00    2.21006000E-01 
SP   3    1.000000
   2.09642000E+01    1.14660000E-01   4.02487000E-02 
   4.80331000E+00    9.19999000E-01   2.37594000E-01 
   1.45933000E+00   -3.03068000E-03   8.15854000E-01 
SP   1    1.000000
   4.83456000E-01    1.00000000E+00   1.00000000E+00 
SP   1    1.000000
   1.45585000E-01    1.00000000E+00   1.00000000E+00 
SP   1    1.000000
   4.38000000E-02    1.00000000E+00   1.00000000E+00 
SP   1    1.000000
   1.31927711E-02    1.00000000E+00   1.00000000E+00 
D    1    1.000000
   6.26000000E-01    1.00000000E+00 

8    0
S    1    1.000000
   8.58850000E+03    1.89515000E-03 
S    1    1.000000
   1.29723000E+03    1.43859000E-02 
S    1    1.000000
   2.99296000E+02    7.07320000E-02 
S    1    1.000000
   8.73771000E+01    2.40001000E-01 
S    1    1.000000
   2.56789000E+01    5.94797000E-01 
S    1    1.000000
   3.74004000E+00    2.80802000E-01 
SP   3    1.000000
   4.21175000E+01    1.13889000E-01   3.65114000E-02 
   9.62837000E+00    9.20811000E-01   2.37153000E-01 
   2.85332000E+00   -3.27447000E-03   8.19702000E-01 
SP   1    1.000000
   9.05661000E-01    1.00000000E+00   1.00000000E+00 
SP   1    1.000000
   2.55611000E-01    1.00000000E+00   1.00000000E+00 
SP   1    1.000000
   8.45000000E-02    1.00000000E+00   1.00000000E+00 
SP   1    1.000000
   2.54518072E-02    1.00000000E+00   1.00000000E+00 
D    1    1.000000
   1.29200000E+00    1.00000000E+00 

9    0
S    1    1.000000
   6.29348000E+03    1.96979000E-03 
S    1    1.000000
   9.49044000E+02    1.49613000E-02 
S    1    1.000000
   2.18776000E+02    7.35006000E-02 
S    1    1.000000
   6.36916000E+01    2.48937000E-01 
S    1    1.000000
   1.88282000E+01    6.02460000E-01 
S    1    1.000000
   2.72023000E+00    2.56202000E-01 
SP   3    1.000000
   3.06331000E+01    1.11906000E-01   3.83119000E-02 
   7.02614000E+00    9.21666000E-01   2.37403000E-01 
   2.11205000E+00   -2.56919000E-03   8.17592000E-01 
SP   1    1.000000
   6.84009000E-01    1.00000000E+00   1.00000000E+00 
SP   1    1.000000
   2.00878000E-01    1.00000000E+00   1.00000000E+00 
SP   1    1.000000
   6.39000000E-02    1.00000000E+00   1.00000000E+00 
SP   1    1.000000
   1.92469880E-02    1.00000000E+00   1.00000000E+00 
D    1    1.000000
   9.13000000E-01    1.00000000E+00 

10    0
S    1    1.000000
   6.29348000E+03    1.96979000E-03 
S    1    1.000000
   9.49044000E+02    1.49613000E-02 
S    1    1.000000
   2.18776000E+02    7.35006000E-02 
S    1    1.000000
   6.36916000E+01    2.48937000E-01 
S    1    1.000000
   1.88282000E+01    6.02460000E-01 
S    1    1.000000
   2.72023000E+00    2.56202000E-01 
SP   3    1.000000
   3.06331000E+01    1.11906000E-01   3.83119000E-02 
   7.02614000E+00    9.21666000E-01   2.37403000E-01 
   2.11205000E+00   -2.56919000E-03   8.17592000E-01 
SP   1    1.000000
   6.84009000E-01    1.00000000E+00   1.00000000E+00 
SP   1    1.000000
   2.00878000E-01    1.00000000E+00   1.00000000E+00 
SP   1    1.000000
   6.39000000E-02    1.00000000E+00   1.00000000E+00 
SP   1    1.000000
   1.92469880E-02    1.00000000E+00   1.00000000E+00 
D    1    1.000000
   9.13000000E-01    1.00000000E+00 

11    0
S    1    1.000000
   4.56324000E+03    1.96665000E-03 
S    1    1.000000
   6.82024000E+02    1.52306000E-02 
S    1    1.000000
   1.54973000E+02    7.61269000E-02 
S    1    1.000000
   4.44553000E+01    2.60801000E-01 
S    1    1.000000
   1.30290000E+01    6.16462000E-01 
S    1    1.000000
   1.82773000E+00    2.21006000E-01 
SP   3    1.000000
   2.09642000E+01    1.14660000E-01   4.02487000E-02 
   4.80331000E+00    9.19999000E-01   2.37594000E-01 
   1.45933000E+00   -3.03068000E-03   8.15854000E-01 
SP   1    1.000000
   4.83456000E-01    1.00000000E+00   1.00000000E+00 
SP   1    1.000000
   1.45585000E-01    1.00000000E+00   1.00000000E+00 
SP   1    1.000000
   4.38000000E-02    1.00000000E+00   1.00000000E+00 
SP   1    1.000000
   1.31927711E-02    1.00000000E+00   1.00000000E+00 
D    1    1.000000
   6.26000000E-01    1.00000000E+00 

12    0
S    3    1.000000
   3.38650000E+01    2.54938000E-02 
   5.09479000E+00    1.90373000E-01 
   1.15879000E+00    8.52161000E-01 
S    1    1.000000
   3.25840000E-01    1.00000000E+00 
S    1    1.000000
   1.02741000E-01    1.00000000E+00 
S    1    1.000000
   3.60000000E-02    1.00000000E+00 
P    1    1.000000
   7.50000000E-01    1.00000000E+00 

[MO]
Sym=X
Ene=0.949325
Spin=Alpha
Occup=1
1    -1.02075061e-09
2    1.26612767e-08
3    -8.53511472e-08
4    2.92021396e-07
5    -4.35224889e-06
6    -1.99371396e-05
7    1.13533666e-05
8    -8.19093852e-07
9    -7.68344751e-06
10    -5.69842539e-16
11    3.37394257e-05
12    1.09466721e-05
13    3.58107583e-05
14    9.40838376e-16
15    0.000215135831
16    4.9960635e-05
17    7.52410144e-05
18    1.34627404e-15
19    0.000876587298
20    -6.24040574e-05
21    0.000764032196
22    1.6561475e-14
23    4.94671222e-05
24    -0.000379645397
25    0.000280646973
26    5.63197625e-14
27    3.4408976e-07
28    9.14931065e-16
29    -6.08837291e-06
30    -3.77478617e-16
31    3.01200521e-06
32    6.90195118e-06
33    -2.71337215e-05
34    -0.000180947713
35    -0.000292187876
36    -2.4889353e-06
37    1.87689074e-06
38    7.71550108e-16
39    3.21913243e-06
40    2.37005035e-06
41    4.71207626e-05
42    0.000653240938
43    -1.46636796e-06
44    1.80888846e-06
45    -3.86666006e-16
46    0.000247048381
47    0.000101587974
48    0.000241162167
49    0.000307873324
50    -4.22000267e-06
51    -0.000124203673
52    2.04625375e-15
53    2.2413871e-08
54    1.87550903e-07
55    7.70203704e-07
56    2.91434551e-06
57    1.9499946e-08
58    -5.63143868e-05
59    3.17002162e-06
60    4.62290235e-05
61    2.25182827e-05
62    2.70236012e-15
63    0.000286761406
64    0.000309828675
65    0.000128741425
66    2.38201713e-15
67    -0.000171803243
68    -5.04170114e-05
69    -0.000190194521
70    9.0181542e-15
71    -0.000921649362
72    -0.000499668524
73    0.000187583831
74    3.47295565e-14
75    -0.000940826457
76    -2.92214039e-05
77    0.000364025503
78    -8.70573136e-15
79    0.000139481855
80    2.54268608e-17
81    -1.83822815e-05
82    8.39009696e-16
83    0.000145882306
84    7.23890728e-09
85    7.24541401e-08
86    2.32836638e-07
87    1.26162265e-06
88    -1.34179136e-06
89    -1.40686135e-05
90    1.47031052e-05
91    -1.70277785e-05
92    -3.87239375e-06
93    1.05851763e-15
94    1.84968376e-05
95    3.83080808e-05
96    -9.19898023e-06
97    7.90165374e-16
98    8.85418763e-05
99    1.25371873e-05
100    1.02690994e-05
101    5.49578988e-15
102    -8.03127425e-05
103    2.54962579e-05
104    -2.26412978e-06
105    -8.11336439e-15
106    -0.000586372943
107    -4.1548151e-05
108    6.47124653e-05
109    9.512377e-15
110    -2.03699898e-07
111    -3.35583576e-16
112    -4.39817421e-06
113    5.15891664e-16
114    2.34844272e-05
115    2.02136821e-08
116    1.75586692e-07
117    6.80561221e-07
118    2.83669553e-06
119    5.4484821e-07
120    -3.60114412e-05
121    9.3223123e-07
122    -4.58363142e-05
123    2.79182661e-05
124    2.31771311e-15
125    0.000236566164
126    -0.000242238823
127    0.00012284052
128    5.15519401e-15
129    -0.000179209755
130    -1.18572447e-05
131    -0.00010329462
132    5.97489809e-15
133    -0.00165307046
134    0.000731566765
135    0.000301407756
136    2.58538607e-14
137    0.000186088186
138    0.000322166767
139    -3.50241564e-05
140    4.89503984e-14
141    -0.000117121563
142    2.52870286e-16
143    -1.86679207e-06
144    -7.85137361e-16
145    0.000113147056
146    7.30150048e-09
147    7.14545659e-08
148    2.38489722e-07
149    1.24095112e-06
150    -1.01404562e-06
151    -1.26841063e-05
152    1.38297168e-05
153    1.67294273e-05
154    -3.53920204e-06
155    1.35377096e-15
156    1.53477714e-05
157    -3.52638429e-05
158    -1.20987868e-05
159    2.7185847e-15
160    8.16912134e-05
161    1.93690769e-06
162    -5.41260139e-06
163    3.14146275e-15
164    -6.17403252e-05
165    -4.77832623e-05
166    -1.01680693e-05
167    1.75629943e-15
168    -0.00058138305
169    3.67947188e-05
170    2.2080527e-05
171    -3.65039666e-15
172    2.92012372e-06
173    -1.39806682e-16
174    -5.73453567e-06
175    -6.57927691e-16
176    1.78219843e-05
177    0.00109716618
178    0.00835381292
179    0.0409316957
180    0.138936268
181    0.33592162
182    0.144117182
183    0.467440213
184    -0.000169198827
185    -0.000149582878
186    2.89317451e-15
187    0.00432141028
188    0.000113014893
189    4.22900706e-05
190    3.14357512e-15
191    -0.000407166141
192    -8.35730194e-05
193    -1.91102481e-05
194    8.21742325e-15
195    0.00226159656
196    -3.70457578e-06
197    -0.000823414249
198    -1.45950997e-14
199    0.00185512021
200    0.000136745802
201    -0.000483876828
202    -2.76407319e-14
203    -1.56973482e-05
204    -4.09380132e-16
205    5.29106085e-05
206    -5.03545009e-16
207    -2.24376858e-06
208    1.18584607e-06
209    9.07661568e-06
210    4.41339636e-05
211    0.00015113301
212    0.000353914727
213    0.000115591671
214    0.00053279451
215    -3.71514576e-06
216    -2.0929401e-05
217    1.67577109e-16
218    7.06011188e-05
219    6.96788615e-06
220    7.03921372e-05
221    2.45262233e-15
222    -0.000108786238
223    -9.4424952e-05
224    -0.000119258347
225    9.08938891e-16
226    -0.000530851653
227    -0.000361837796
228    -0.000215927614
229    -1.18930594e-14
230    -0.000572473509
231    -0.000407392325
232    0.000179942868
233    -3.31096007e-14
234    7.95330666e-06
235    4.73141856e-16
236    -6.00042374e-06
237    -2.16460193e-16
238    -2.54095058e-05
239    -6.00908742e-10
240    3.74760534e-08
241    -1.15726752e-07
242    8.02983895e-07
243    -8.39247095e-06
244    -3.89295586e-05
245    2.43987234e-05
246    1.38425642e-06
247    -1.77344415e-05
248    5.03279681e-16
249    7.48242991e-05
250    2.47292828e-06
251    7.7050503e-05
252    2.92759993e-15
253    -0.000273948234
254    0.000184363913
255    -0.000111258354
256    -6.69680859e-16
257    0.000276405839
258    3.20494471e-05
259    -9.29977415e-05
260    -9.66359722e-15
261    0.000373518525
262    -0.000272987685
263    -0.000498195438
264    -7.0327542e-14
265    -8.52072049e-06
266    4.39401932e-16
267    -1.14268022e-06
268    -2.62339471e-17
269    -3.71520159e-05
270    7.3667462e-06
271    -1.50410541e-05
272    -0.00010666062
273    -9.09410867e-05
274    -2.10349325e-06
275    5.33943449e-06
276    4.55510707e-16
Sym=X
Ene=0.950183
Spin=Alpha
Occup=1
1    2.56224756e-08
2    1.89446624e-07
3    9.49084303e-07
4    2.84588548e-06
5    4.87028208e-06
6    -3.78715345e-05
7    -4.81853949e-06
8    -4.29564774e-05
9    2.92012773e-05
10    1.16076166e-15
11    0.000233247627
12    -0.000326271549
13    0.000187781849
14    3.05497109e-15
15    -0.000220276798
16    0.000159944487
17    2.15871401e-05
18    1.55056742e-15
19    -0.0019540791
20    -8.26523731e-05
21    -0.00117833303
22    1.57819038e-14
23    0.000165382363
24    0.000150768152
25    -0.000356387081
26    9.95200623e-14
27    -0.000197038971
28    -4.85044599e-16
29    -8.13084506e-06
30    7.55903768e-16
31    7.95480041e-05
32    0.000247532374
33    7.80944195e-05
34    0.000319973098
35    0.00039773966
36    0.00011088314
37    4.54150777e-05
38    -1.92076745e-16
39    1.01780052e-05
40    0.000133148669
41    -0.000147284335
42    -0.000834332245
43    -1.61602531e-05
44    5.95099642e-05
45    1.08105542e-15
46    3.98423949e-06
47    -8.69606628e-06
48    -0.000210665434
49    -0.000341461236
50    -1.79295448e-06
51    -4.52392004e-07
52    -1.54102594e-15
53    2.1766407e-08
54    1.74635825e-07
55    7.64657698e-07
56    2.70171919e-06
57    2.16399128e-06
58    -3.98867647e-05
59    -3.42052645e-06
60    5.70797244e-07
61    -5.63482743e-05
62    -2.46395311e-15
63    0.000262924933
64    1.65553716e-05
65    -0.000301226671
66    -7.75705278e-15
67    -0.000194462531
68    0.000137886866
69    5.57658744e-05
70    -2.50425095e-15
71    -0.000705090837
72    -0.000343435701
73    0.000291026499
74    2.41127501e-14
75    -0.000906610314
76    -0.000326056408
77    -0.000156441278
78    -3.82392292e-14
79    -3.28261442e-05
80    -8.86124361e-16
81    -7.85563031e-06
82    6.04598155e-16
83    -0.000177182054
84    7.3155114e-09
85    7.10398193e-08
86    2.40286201e-07
87    1.23286766e-06
88    -8.99871255e-07
89    -1.21621196e-05
90    1.35598112e-05
91    -4.05767991e-06
92    1.65264312e-05
93    -1.58413144e-15
94    1.35508884e-05
95    2.30835172e-05
96    -2.65623463e-05
97    -5.29620041e-15
98    9.84532717e-05
99    1.14102235e-05
100    -1.30298336e-05
101    -5.60204336e-16
102    -2.47127327e-05
103    2.35364056e-05
104    -2.36608212e-05
105    -2.01020994e-14
106    -0.000688504425
107    -9.16673876e-05
108    2.23883686e-05
109    2.23720482e-14
110    -1.76610738e-05
111    3.42268763e-16
112    -5.19033434e-06
113    -7.10438254e-16
114    -1.14246698e-05
115    -6.58427812e-10
116    7.43894848e-09
117    -5.29574834e-08
118    1.72416462e-07
119    -2.7179104e-06
120    -1.28253889e-05
121    7.28647567e-06
122    5.55163411e-06
123    6.53285665e-06
124    -3.64440302e-16
125    1.43028281e-05
126    -2.09962756e-05
127    -3.33794878e-05
128    -6.87582779e-16
129    0.000277401895
130    2.0251795e-05
131    3.38402713e-05
132    7.42061063e-16
133    0.00127474461
134    -0.000516858627
135    -0.000190985039
136    1.47137922e-14
137    -4.34358765e-05
138    -0.000473077314
139    0.00018228887
140    9.11556026e-14
141    -2.56725761e-06
142    -9.50369026e-16
143    -7.24217965e-06
144    4.97036589e-16
145    -5.62095571e-06
146    -6.11617495e-10
147    1.999097e-09
148    -3.81371802e-08
149    5.18198424e-08
150    -1.55176573e-06
151    -5.99373357e-06
152    3.53374117e-06
153    1.17629682e-06
154    7.27695191e-07
155    -2.99375275e-16
156    1.32644845e-05
157    -6.52171304e-06
158    -4.69915742e-06
159    -1.28760372e-16
160    -3.58465465e-05
161    2.09854883e-05
162    1.51228874e-05
163    -3.86984593e-16
164    -0.000185377322
165    9.13047669e-05
166    3.64293147e-05
167    -2.4031971e-15
168    0.000217600777
169    2.78370562e-05
170    5.57509666e-05
171    -1.03152287e-15
172    1.08506251e-06
173    -4.14893331e-18
174    6.9551994e-07
175    3.66135363e-16
176    7.27929829e-07
177    -1.18062753e-06
178    -8.94675536e-06
179    -4.41399367e-05
180    -0.000148640317
181    -0.000369639393
182    -0.000190577562
183    -0.00047829421
184    1.53155879e-05
185    1.3812191e-05
186    -1.86087743e-15
187    4.76807549e-05
188    -5.07529454e-05
189    -3.90525488e-05
190    -3.435389e-15
191    -6.61793068e-05
192    1.68219498e-05
193    0.000102777539
194    -4.28465388e-15
195    -0.00058983109
196    4.45189455e-05
197    0.000501333114
198    -1.70343033e-14
199    -0.00051888297
200    -0.00040936209
201    0.000257480835
202    -2.88083043e-14
203    2.15902892e-05
204    6.5601397e-17
205    -8.11325623e-06
206    6.78188558e-16
207    7.29880443e-06
208    0.00109715559
209    0.00835375006
210    0.0409312917
211    0.138936366
212    0.335920113
213    0.144146339
214    0.467415089
215    0.000180383672
216    5.04755918e-07
217    -1.21414811e-16
218    0.0043290146
219    -8.89854167e-05
220    3.82476482e-05
221    -2.72825202e-15
222    -0.000437112059
223    1.06153975e-05
224    -3.4357306e-05
225    1.69637442e-15
226    0.00235610928
227    0.000911530837
228    0.000476343539
229    -2.03094298e-14
230    0.00163690923
231    0.0004617107
232    0.00020940781
233    -2.84825601e-14
234    1.15320468e-05
235    -9.13298399e-16
236    6.29883251e-05
237    3.57688292e-16
238    2.4508391e-06
239    -2.44804224e-09
240    3.19197043e-08
241    -2.0719151e-07
242    7.28455255e-07
243    -1.09128645e-05
244    -5.17144124e-05
245    2.91010797e-05
246    1.81848902e-05
247    3.43400775e-06
248    5.54430703e-16
249    0.00011683013
250    -0.000110517813
251    -3.55843172e-05
252    4.44101697e-15
253    -0.000212859227
254    0.000155022946
255    -5.11857142e-05
256    -1.69477602e-15
257    0.000859018617
258    -0.000105629973
259    0.000116956869
260    -1.20249894e-15
261    0.000428827868
262    0.000389724361
263    0.000593149628
264    -1.21087364e-13
265    1.62792018e-05
266    -1.06792911e-15
267    -9.76363731e-06
268    -5.61931488e-16
269    5.63851976e-05
270    4.0601965e-06
271    -5.68874038e-06
272    -7.54652078e-05
273    2.50558877e-05
274    -7.8172376e-06
275    -5.93291561e-06
276    9.81405032e-16
[5D]