[Molden Format]
[Atoms] (Angs)
  C      1    6     -0.00714236     -1.70213747     -0.00000000
  H      2    1     -2.06882847     -1.44022412      0.00000000
  H      3    1     -0.12337987     -2.77567521      0.00000000
  H      4    1      0.04651892      1.98813947     -0.00000000
  C      5    6     -1.21953563      0.40211669      0.00000000
  O      6    8     -2.25921553      1.03043814      0.00000000
  C      7    6      1.28797806      0.34644937     -0.00000000
  O      8    8      2.31273661      1.00537216     -0.00000000
  N      9    7      0.03446295      0.97739857     -0.00000000
  N     10    7     -1.17287765     -0.98229824      0.00000000
  C     11    6      1.20107039     -1.10433419     -0.00000000
  H     12    1      2.11220096     -1.67699125     -0.00000000
[GTO]
1    0
S    1    1.000000
   4.56324000E+03    1.96665000E-03 
S    1    1.000000
   6.82024000E+02    1.52306000E-02 
S    1    1.000000
   1.54973000E+02    7.61269000E-02 
S    1    1.000000
   4.44553000E+01    2.60801000E-01 
S    1    1.000000
   1.30290000E+01    6.16462000E-01 
S    1    1.000000
   1.82773000E+00    2.21006000E-01 
SP   3    1.000000
   2.09642000E+01    1.14660000E-01   4.02487000E-02 
   4.80331000E+00    9.19999000E-01   2.37594000E-01 
   1.45933000E+00   -3.03068000E-03   8.15854000E-01 
SP   1    1.000000
   4.83456000E-01    1.00000000E+00   1.00000000E+00 
SP   1    1.000000
   1.45585000E-01    1.00000000E+00   1.00000000E+00 
SP   1    1.000000
   4.38000000E-02    1.00000000E+00   1.00000000E+00 
SP   1    1.000000
   1.31927711E-02    1.00000000E+00   1.00000000E+00 
D    1    1.000000
   6.26000000E-01    1.00000000E+00 

2    0
S    3    1.000000
   3.38650000E+01    2.54938000E-02 
   5.09479000E+00    1.90373000E-01 
   1.15879000E+00    8.52161000E-01 
S    1    1.000000
   3.25840000E-01    1.00000000E+00 
S    1    1.000000
   1.02741000E-01    1.00000000E+00 
S    1    1.000000
   3.60000000E-02    1.00000000E+00 
P    1    1.000000
   7.50000000E-01    1.00000000E+00 

3    0
S    3    1.000000
   3.38650000E+01    2.54938000E-02 
   5.09479000E+00    1.90373000E-01 
   1.15879000E+00    8.52161000E-01 
S    1    1.000000
   3.25840000E-01    1.00000000E+00 
S    1    1.000000
   1.02741000E-01    1.00000000E+00 
S    1    1.000000
   3.60000000E-02    1.00000000E+00 
P    1    1.000000
   7.50000000E-01    1.00000000E+00 

4    0
S    3    1.000000
   3.38650000E+01    2.54938000E-02 
   5.09479000E+00    1.90373000E-01 
   1.15879000E+00    8.52161000E-01 
S    1    1.000000
   3.25840000E-01    1.00000000E+00 
S    1    1.000000
   1.02741000E-01    1.00000000E+00 
S    1    1.000000
   3.60000000E-02    1.00000000E+00 
P    1    1.000000
   7.50000000E-01    1.00000000E+00 

5    0
S    1    1.000000
   4.56324000E+03    1.96665000E-03 
S    1    1.000000
   6.82024000E+02    1.52306000E-02 
S    1    1.000000
   1.54973000E+02    7.61269000E-02 
S    1    1.000000
   4.44553000E+01    2.60801000E-01 
S    1    1.000000
   1.30290000E+01    6.16462000E-01 
S    1    1.000000
   1.82773000E+00    2.21006000E-01 
SP   3    1.000000
   2.09642000E+01    1.14660000E-01   4.02487000E-02 
   4.80331000E+00    9.19999000E-01   2.37594000E-01 
   1.45933000E+00   -3.03068000E-03   8.15854000E-01 
SP   1    1.000000
   4.83456000E-01    1.00000000E+00   1.00000000E+00 
SP   1    1.000000
   1.45585000E-01    1.00000000E+00   1.00000000E+00 
SP   1    1.000000
   4.38000000E-02    1.00000000E+00   1.00000000E+00 
SP   1    1.000000
   1.31927711E-02    1.00000000E+00   1.00000000E+00 
D    1    1.000000
   6.26000000E-01    1.00000000E+00 

6    0
S    1    1.000000
   8.58850000E+03    1.89515000E-03 
S    1    1.000000
   1.29723000E+03    1.43859000E-02 
S    1    1.000000
   2.99296000E+02    7.07320000E-02 
S    1    1.000000
   8.73771000E+01    2.40001000E-01 
S    1    1.000000
   2.56789000E+01    5.94797000E-01 
S    1    1.000000
   3.74004000E+00    2.80802000E-01 
SP   3    1.000000
   4.21175000E+01    1.13889000E-01   3.65114000E-02 
   9.62837000E+00    9.20811000E-01   2.37153000E-01 
   2.85332000E+00   -3.27447000E-03   8.19702000E-01 
SP   1    1.000000
   9.05661000E-01    1.00000000E+00   1.00000000E+00 
SP   1    1.000000
   2.55611000E-01    1.00000000E+00   1.00000000E+00 
SP   1    1.000000
   8.45000000E-02    1.00000000E+00   1.00000000E+00 
SP   1    1.000000
   2.54518072E-02    1.00000000E+00   1.00000000E+00 
D    1    1.000000
   1.29200000E+00    1.00000000E+00 

7    0
S    1    1.000000
   4.56324000E+03    1.96665000E-03 
S    1    1.000000
   6.82024000E+02    1.52306000E-02 
S    1    1.000000
   1.54973000E+02    7.61269000E-02 
S    1    1.000000
   4.44553000E+01    2.60801000E-01 
S    1    1.000000
   1.30290000E+01    6.16462000E-01 
S    1    1.000000
   1.82773000E+00    2.21006000E-01 
SP   3    1.000000
   2.09642000E+01    1.14660000E-01   4.02487000E-02 
   4.80331000E+00    9.19999000E-01   2.37594000E-01 
   1.45933000E+00   -3.03068000E-03   8.15854000E-01 
SP   1    1.000000
   4.83456000E-01    1.00000000E+00   1.00000000E+00 
SP   1    1.000000
   1.45585000E-01    1.00000000E+00   1.00000000E+00 
SP   1    1.000000
   4.38000000E-02    1.00000000E+00   1.00000000E+00 
SP   1    1.000000
   1.31927711E-02    1.00000000E+00   1.00000000E+00 
D    1    1.000000
   6.26000000E-01    1.00000000E+00 

8    0
S    1    1.000000
   8.58850000E+03    1.89515000E-03 
S    1    1.000000
   1.29723000E+03    1.43859000E-02 
S    1    1.000000
   2.99296000E+02    7.07320000E-02 
S    1    1.000000
   8.73771000E+01    2.40001000E-01 
S    1    1.000000
   2.56789000E+01    5.94797000E-01 
S    1    1.000000
   3.74004000E+00    2.80802000E-01 
SP   3    1.000000
   4.21175000E+01    1.13889000E-01   3.65114000E-02 
   9.62837000E+00    9.20811000E-01   2.37153000E-01 
   2.85332000E+00   -3.27447000E-03   8.19702000E-01 
SP   1    1.000000
   9.05661000E-01    1.00000000E+00   1.00000000E+00 
SP   1    1.000000
   2.55611000E-01    1.00000000E+00   1.00000000E+00 
SP   1    1.000000
   8.45000000E-02    1.00000000E+00   1.00000000E+00 
SP   1    1.000000
   2.54518072E-02    1.00000000E+00   1.00000000E+00 
D    1    1.000000
   1.29200000E+00    1.00000000E+00 

9    0
S    1    1.000000
   6.29348000E+03    1.96979000E-03 
S    1    1.000000
   9.49044000E+02    1.49613000E-02 
S    1    1.000000
   2.18776000E+02    7.35006000E-02 
S    1    1.000000
   6.36916000E+01    2.48937000E-01 
S    1    1.000000
   1.88282000E+01    6.02460000E-01 
S    1    1.000000
   2.72023000E+00    2.56202000E-01 
SP   3    1.000000
   3.06331000E+01    1.11906000E-01   3.83119000E-02 
   7.02614000E+00    9.21666000E-01   2.37403000E-01 
   2.11205000E+00   -2.56919000E-03   8.17592000E-01 
SP   1    1.000000
   6.84009000E-01    1.00000000E+00   1.00000000E+00 
SP   1    1.000000
   2.00878000E-01    1.00000000E+00   1.00000000E+00 
SP   1    1.000000
   6.39000000E-02    1.00000000E+00   1.00000000E+00 
SP   1    1.000000
   1.92469880E-02    1.00000000E+00   1.00000000E+00 
D    1    1.000000
   9.13000000E-01    1.00000000E+00 

10    0
S    1    1.000000
   6.29348000E+03    1.96979000E-03 
S    1    1.000000
   9.49044000E+02    1.49613000E-02 
S    1    1.000000
   2.18776000E+02    7.35006000E-02 
S    1    1.000000
   6.36916000E+01    2.48937000E-01 
S    1    1.000000
   1.88282000E+01    6.02460000E-01 
S    1    1.000000
   2.72023000E+00    2.56202000E-01 
SP   3    1.000000
   3.06331000E+01    1.11906000E-01   3.83119000E-02 
   7.02614000E+00    9.21666000E-01   2.37403000E-01 
   2.11205000E+00   -2.56919000E-03   8.17592000E-01 
SP   1    1.000000
   6.84009000E-01    1.00000000E+00   1.00000000E+00 
SP   1    1.000000
   2.00878000E-01    1.00000000E+00   1.00000000E+00 
SP   1    1.000000
   6.39000000E-02    1.00000000E+00   1.00000000E+00 
SP   1    1.000000
   1.92469880E-02    1.00000000E+00   1.00000000E+00 
D    1    1.000000
   9.13000000E-01    1.00000000E+00 

11    0
S    1    1.000000
   4.56324000E+03    1.96665000E-03 
S    1    1.000000
   6.82024000E+02    1.52306000E-02 
S    1    1.000000
   1.54973000E+02    7.61269000E-02 
S    1    1.000000
   4.44553000E+01    2.60801000E-01 
S    1    1.000000
   1.30290000E+01    6.16462000E-01 
S    1    1.000000
   1.82773000E+00    2.21006000E-01 
SP   3    1.000000
   2.09642000E+01    1.14660000E-01   4.02487000E-02 
   4.80331000E+00    9.19999000E-01   2.37594000E-01 
   1.45933000E+00   -3.03068000E-03   8.15854000E-01 
SP   1    1.000000
   4.83456000E-01    1.00000000E+00   1.00000000E+00 
SP   1    1.000000
   1.45585000E-01    1.00000000E+00   1.00000000E+00 
SP   1    1.000000
   4.38000000E-02    1.00000000E+00   1.00000000E+00 
SP   1    1.000000
   1.31927711E-02    1.00000000E+00   1.00000000E+00 
D    1    1.000000
   6.26000000E-01    1.00000000E+00 

12    0
S    3    1.000000
   3.38650000E+01    2.54938000E-02 
   5.09479000E+00    1.90373000E-01 
   1.15879000E+00    8.52161000E-01 
S    1    1.000000
   3.25840000E-01    1.00000000E+00 
S    1    1.000000
   1.02741000E-01    1.00000000E+00 
S    1    1.000000
   3.60000000E-02    1.00000000E+00 
P    1    1.000000
   7.50000000E-01    1.00000000E+00 

[MO]
Sym=X
Ene=0.950183
Spin=Alpha
Occup=1
1    2.56224756e-08
2    1.89446624e-07
3    9.49084303e-07
4    2.84588548e-06
5    4.87028208e-06
6    -3.78715345e-05
7    -4.81853949e-06
8    -4.29564774e-05
9    2.92012773e-05
10    1.16076166e-15
11    0.000233247627
12    -0.000326271549
13    0.000187781849
14    3.05497109e-15
15    -0.000220276798
16    0.000159944487
17    2.15871401e-05
18    1.55056742e-15
19    -0.0019540791
20    -8.26523731e-05
21    -0.00117833303
22    1.57819038e-14
23    0.000165382363
24    0.000150768152
25    -0.000356387081
26    9.95200623e-14
27    -0.000197038971
28    -4.85044599e-16
29    -8.13084506e-06
30    7.55903768e-16
31    7.95480041e-05
32    0.000247532374
33    7.80944195e-05
34    0.000319973098
35    0.00039773966
36    0.00011088314
37    4.54150777e-05
38    -1.92076745e-16
39    1.01780052e-05
40    0.000133148669
41    -0.000147284335
42    -0.000834332245
43    -1.61602531e-05
44    5.95099642e-05
45    1.08105542e-15
46    3.98423949e-06
47    -8.69606628e-06
48    -0.000210665434
49    -0.000341461236
50    -1.79295448e-06
51    -4.52392004e-07
52    -1.54102594e-15
53    2.1766407e-08
54    1.74635825e-07
55    7.64657698e-07
56    2.70171919e-06
57    2.16399128e-06
58    -3.98867647e-05
59    -3.42052645e-06
60    5.70797244e-07
61    -5.63482743e-05
62    -2.46395311e-15
63    0.000262924933
64    1.65553716e-05
65    -0.000301226671
66    -7.75705278e-15
67    -0.000194462531
68    0.000137886866
69    5.57658744e-05
70    -2.50425095e-15
71    -0.000705090837
72    -0.000343435701
73    0.000291026499
74    2.41127501e-14
75    -0.000906610314
76    -0.000326056408
77    -0.000156441278
78    -3.82392292e-14
79    -3.28261442e-05
80    -8.86124361e-16
81    -7.85563031e-06
82    6.04598155e-16
83    -0.000177182054
84    7.3155114e-09
85    7.10398193e-08
86    2.40286201e-07
87    1.23286766e-06
88    -8.99871255e-07
89    -1.21621196e-05
90    1.35598112e-05
91    -4.05767991e-06
92    1.65264312e-05
93    -1.58413144e-15
94    1.35508884e-05
95    2.30835172e-05
96    -2.65623463e-05
97    -5.29620041e-15
98    9.84532717e-05
99    1.14102235e-05
100    -1.30298336e-05
101    -5.60204336e-16
102    -2.47127327e-05
103    2.35364056e-05
104    -2.36608212e-05
105    -2.01020994e-14
106    -0.000688504425
107    -9.16673876e-05
108    2.23883686e-05
109    2.23720482e-14
110    -1.76610738e-05
111    3.42268763e-16
112    -5.19033434e-06
113    -7.10438254e-16
114    -1.14246698e-05
115    -6.58427812e-10
116    7.43894848e-09
117    -5.29574834e-08
118    1.72416462e-07
119    -2.7179104e-06
120    -1.28253889e-05
121    7.28647567e-06
122    5.55163411e-06
123    6.53285665e-06
124    -3.64440302e-16
125    1.43028281e-05
126    -2.09962756e-05
127    -3.33794878e-05
128    -6.87582779e-16
129    0.000277401895
130    2.0251795e-05
131    3.38402713e-05
132    7.42061063e-16
133    0.00127474461
134    -0.000516858627
135    -0.000190985039
136    1.47137922e-14
137    -4.34358765e-05
138    -0.000473077314
139    0.00018228887
140    9.11556026e-14
141    -2.56725761e-06
142    -9.50369026e-16
143    -7.24217965e-06
144    4.97036589e-16
145    -5.62095571e-06
146    -6.11617495e-10
147    1.999097e-09
148    -3.81371802e-08
149    5.18198424e-08
150    -1.55176573e-06
151    -5.99373357e-06
152    3.53374117e-06
153    1.17629682e-06
154    7.27695191e-07
155    -2.99375275e-16
156    1.32644845e-05
157    -6.52171304e-06
158    -4.69915742e-06
159    -1.28760372e-16
160    -3.58465465e-05
161    2.09854883e-05
162    1.51228874e-05
163    -3.86984593e-16
164    -0.000185377322
165    9.13047669e-05
166    3.64293147e-05
167    -2.4031971e-15
168    0.000217600777
169    2.78370562e-05
170    5.57509666e-05
171    -1.03152287e-15
172    1.08506251e-06
173    -4.14893331e-18
174    6.9551994e-07
175    3.66135363e-16
176    7.27929829e-07
177    -1.18062753e-06
178    -8.94675536e-06
179    -4.41399367e-05
180    -0.000148640317
181    -0.000369639393
182    -0.000190577562
183    -0.00047829421
184    1.53155879e-05
185    1.3812191e-05
186    -1.86087743e-15
187    4.76807549e-05
188    -5.07529454e-05
189    -3.90525488e-05
190    -3.435389e-15
191    -6.61793068e-05
192    1.68219498e-05
193    0.000102777539
194    -4.28465388e-15
195    -0.00058983109
196    4.45189455e-05
197    0.000501333114
198    -1.70343033e-14
199    -0.00051888297
200    -0.00040936209
201    0.000257480835
202    -2.88083043e-14
203    2.15902892e-05
204    6.5601397e-17
205    -8.11325623e-06
206    6.78188558e-16
207    7.29880443e-06
208    0.00109715559
209    0.00835375006
210    0.0409312917
211    0.138936366
212    0.335920113
213    0.144146339
214    0.467415089
215    0.000180383672
216    5.04755918e-07
217    -1.21414811e-16
218    0.0043290146
219    -8.89854167e-05
220    3.82476482e-05
221    -2.72825202e-15
222    -0.000437112059
223    1.06153975e-05
224    -3.4357306e-05
225    1.69637442e-15
226    0.00235610928
227    0.000911530837
228    0.000476343539
229    -2.03094298e-14
230    0.00163690923
231    0.0004617107
232    0.00020940781
233    -2.84825601e-14
234    1.15320468e-05
235    -9.13298399e-16
236    6.29883251e-05
237    3.57688292e-16
238    2.4508391e-06
239    -2.44804224e-09
240    3.19197043e-08
241    -2.0719151e-07
242    7.28455255e-07
243    -1.09128645e-05
244    -5.17144124e-05
245    2.91010797e-05
246    1.81848902e-05
247    3.43400775e-06
248    5.54430703e-16
249    0.00011683013
250    -0.000110517813
251    -3.55843172e-05
252    4.44101697e-15
253    -0.000212859227
254    0.000155022946
255    -5.11857142e-05
256    -1.69477602e-15
257    0.000859018617
258    -0.000105629973
259    0.000116956869
260    -1.20249894e-15
261    0.000428827868
262    0.000389724361
263    0.000593149628
264    -1.21087364e-13
265    1.62792018e-05
266    -1.06792911e-15
267    -9.76363731e-06
268    -5.61931488e-16
269    5.63851976e-05
270    4.0601965e-06
271    -5.68874038e-06
272    -7.54652078e-05
273    2.50558877e-05
274    -7.8172376e-06
275    -5.93291561e-06
276    9.81405032e-16
[5D]