                  Welcome to Q-Chem
     A Quantum Leap Into The Future Of Chemistry


 Q-Chem 5.2 (devel), Q-Chem, Inc., Pleasanton, CA (2019)

 Yihan Shao,  Zhengting Gan,  E. Epifanovsky,  A. T. B. Gilbert,  M. Wormit,  
 J. Kussmann,  A. W. Lange,  A. Behn,  Jia Deng,  Xintian Feng,  D. Ghosh,  
 M. Goldey,  P. R. Horn,  L. D. Jacobson,  I. Kaliman,  T. Kus,  A. Landau,  
 Jie Liu,  E. I. Proynov,  R. M. Richard,  R. P. Steele,  E. J. Sundstrom,  
 H. L. Woodcock III,  P. M. Zimmerman,  D. Zuev,  B. Albrecht,  E. Alguire,  
 S. A. Baeppler,  D. Barton,  Z. Benda,  Y. A. Bernard,  E. J. Berquist,  
 K. B. Bravaya,  H. Burton,  D. Casanova,  Chun-Min Chang,  Yunqing Chen,  
 A. Chien,  K. D. Closser,  M. P. Coons,  S. Coriani,  S. Dasgupta,  
 A. L. Dempwolff,  M. Diedenhofen,  Hainam Do,  R. G. Edgar,  Po-Tung Fang,  
 S. Faraji,  S. Fatehi,  Qingguo Feng,  K. D. Fenk,  J. Fosso-Tande,  
 J. Gayvert,  Qinghui Ge,  A. Ghysels,  G. Gidofalvi,  J. Gomes,  
 J. Gonthier,  A. Gunina,  D. Hait,  M. W. D. Hanson-Heine,  
 P. H. P. Harbach,  A. W. Hauser,  M. F. Herbst,  J. E. Herr,  
 E. G. Hohenstein,  Z. C. Holden,  Kerwin Hui,  B. C. Huynh,  T.-C. Jagau,  
 Hyunjun Ji,  B. Kaduk,  K. Khistyaev,  Jaehoon Kim,  P. Klunzinger,  K. Koh,  
 D. Kosenkov,  L. Koulias,  T. Kowalczyk,  C. M. Krauter,  A. Kunitsa,  
 Ka Un Lao,  A. Laurent,  K. V. Lawler,  Joonho Lee,  D. Lefrancois,  
 S. Lehtola,  D. S. Levine,  Yi-Pei Li,  You-Sheng Lin,  Fenglai Liu,  
 E. Livshits,  A. Luenser,  P. Manohar,  E. Mansoor,  S. F. Manzer,  
 Shan-Ping Mao,  Yuezhi Mao,  N. Mardirossian,  A. V. Marenich,  
 T. Markovich,  L. A. Martinez-Martinez,  S. A. Maurer,  N. J. Mayhall,  
 S. C. McKenzie,  J.-M. Mewes,  P. Morgante,  A. F. Morrison,  
 J. W. Mullinax,  K. Nanda,  T. S. Nguyen-Beck,  R. Olivares-Amaya,  
 J. A. Parkhill,  Zheng Pei,  T. M. Perrine,  F. Plasser,  P. Pokhilko,  
 S. Prager,  A. Prociuk,  E. Ramos,  D. R. Rehn,  F. Rob,  M. Scheurer,  
 M. Schneider,  N. Sergueev,  S. M. Sharada,  S. Sharma,  D. W. Small,  
 T. Stauch,  T. Stein,  Yu-Chuan Su,  A. J. W. Thom,  A. Tkatchenko,  
 T. Tsuchimochi,  N. M. Tubman,  L. Vogt,  M. L. Vidal,  O. Vydrov,  
 M. A. Watson,  J. Wenzel,  M. de Wergifosse,  T. A. Wesolowski,  A. White,  
 J. Witte,  A. Yamada,  Jun Yang,  K. Yao,  S. Yeganeh,  S. R. Yost,  
 Zhi-Qiang You,  A. Zech,  Igor Ying Zhang,  Xing Zhang,  Yan Zhao,  
 Ying Zhu,  B. R. Brooks,  G. K. L. Chan,  C. J. Cramer,  M. S. Gordon,  
 W. J. Hehre,  A. Klamt,  M. W. Schmidt,  C. D. Sherrill,  D. G. Truhlar,  
 A. Aspuru-Guzik,  R. Baer,  A. T. Bell,  N. A. Besley,  Jeng-Da Chai,  
 A. E. DePrince, III,  R. A. DiStasio Jr.,  A. Dreuw,  B. D. Dunietz,  
 T. R. Furlani,  Chao-Ping Hsu,  Yousung Jung,  Jing Kong,  D. S. Lambrecht,  
 WanZhen Liang,  C. Ochsenfeld,  V. A. Rassolov,  L. V. Slipchenko,  
 J. E. Subotnik,  T. Van Voorhis,  J. M. Herbert,  A. I. Krylov,  
 P. M. W. Gill,  M. Head-Gordon

 Contributors to earlier versions of Q-Chem not listed above: 
 R. D. Adamson,  B. Austin,  J. Baker,  G. J. O. Beran,  K. Brandhorst,  
 S. T. Brown,  E. F. C. Byrd,  A. K. Chakraborty,  C.-L. Cheng,  
 Siu Hung Chien,  D. M. Chipman,  D. L. Crittenden,  H. Dachsel,  
 R. J. Doerksen,  A. D. Dutoi,  L. Fusti-Molnar,  W. A. Goddard III,  
 A. Golubeva-Zadorozhnaya,  S. R. Gwaltney,  G. Hawkins,  A. Heyden,  
 S. Hirata,  G. Kedziora,  F. J. Keil,  C. Kelley,  Jihan Kim,  R. A. King,  
 R. Z. Khaliullin,  P. P. Korambath,  W. Kurlancheek,  A. M. Lee,  M. S. Lee,  
 S. V. Levchenko,  Ching Yeh Lin,  D. Liotard,  R. C. Lochan,  I. Lotan,  
 P. E. Maslen,  N. Nair,  D. P. O'Neill,  D. Neuhauser,  E. Neuscamman,  
 C. M. Oana,  R. Olson,  B. Peters,  R. Peverati,  P. A. Pieniazek,  
 Y. M. Rhee,  J. Ritchie,  M. A. Rohrdanz,  E. Rosta,  N. J. Russ,  
 H. F. Schaefer III,  N. E. Schultz,  N. Shenvi,  A. C. Simmonett,  A. Sodt,  
 D. Stuck,  K. S. Thanthiriwatte,  V. Vanovschi,  Tao Wang,  A. Warshel,  
 C. F. Williams,  Q. Wu,  X. Xu,  W. Zhang

 Please cite Q-Chem as follows:
 Y. Shao et al., Mol. Phys. 113, 184-215 (2015)
 DOI: 10.1080/00268976.2014.952696

 Q-Chem 5.2.0 for Intel X86 EM64T Linux

 Parts of Q-Chem use Armadillo 8.300.2 (Tropical Shenanigans).
 http://arma.sourceforge.net/

 Q-Chem begins on Wed Jun 12 18:11:28 2019  

n-62-23-20
Host: 0

     Scratch files written to /work1/malop/qc_8407438.hnode2/qchem2863//
NAlpha2: 58
NElect   58
Mult     1

Checking the input file for inconsistencies... 	...done.

--------------------------------------------------------------
User input:
--------------------------------------------------------------
$comment
Uracil XPS C K-edge 6-311(2+,+)G** (uc)
geometry optimizion: mp2/cc-pvtz
$end

$molecule
0 1
C        0.052842   -1.701332    0.000000
H       -2.016793   -1.512231    0.000000
H       -0.025494   -2.778299    0.000000
H       -0.023568    1.988544    0.000000
C       -1.232948    0.358893    0.000000
O       -2.294123    0.950188    0.000000
C        1.274970    0.391620    0.000000
O        2.275873    1.086244    0.000000
N        0.000000    0.978006    0.000000
N       -1.137535   -1.023018    0.000000
C        1.239239   -1.061325    0.000000
H        2.169983   -1.601520    0.000000
$end

$rem
   JOB_TYPE  =  SP
   BASIS  = general
   print_general_basis = true
   METHOD  =  EOM-CCSD
   CVS_IP_STATES = [2,0]
   EE_STATES = [3,3]
   !eom_davidson_convergence = 4
   cvs_eom_shift = 14500
   n_frozen_core = 4
   cc_trans_prop = true
   cc_memory = 40000
   cc_do_dyson = true
   MOLDEN_FORMAT = TRUE
$end

$basis
H    0
6-311(2+,+)G**
****
O    0
S    1    1.000000
   8.58850000E+03    1.89515000E-03
S    1    1.000000
   1.29723000E+03    1.43859000E-02
S    1    1.000000
   2.99296000E+02    7.07320000E-02
S    1    1.000000
   8.73771000E+01    2.40001000E-01
S    1    1.000000
   2.56789000E+01    5.94797000E-01
S    1    1.000000
   3.74004000E+00    2.80802000E-01
SP   3    1.000000
   4.21175000E+01    1.13889000E-01   3.65114000E-02
   9.62837000E+00    9.20811000E-01   2.37153000E-01
   2.85332000E+00   -3.27447000E-03   8.19702000E-01
SP   1    1.000000
   9.05661000E-01    1.00000000E+00   1.00000000E+00
SP   1    1.000000
   2.55611000E-01    1.00000000E+00   1.00000000E+00
SP   1    1.000000
   8.45000000E-02    1.00000000E+00   1.00000000E+00
SP   1    1.000000
   2.54518072E-02    1.00000000E+00   1.00000000E+00
D    1    1.000000
   1.29200000E+00    1.00000000E+00
****
N    0
S    1    1.000000
   6.29348000E+03    1.96979000E-03
S    1    1.000000
   9.49044000E+02    1.49613000E-02
S    1    1.000000
   2.18776000E+02    7.35006000E-02
S    1    1.000000
   6.36916000E+01    2.48937000E-01
S    1    1.000000
   1.88282000E+01    6.02460000E-01
S    1    1.000000
   2.72023000E+00    2.56202000E-01
SP   3    1.000000
   3.06331000E+01    1.11906000E-01   3.83119000E-02
   7.02614000E+00    9.21666000E-01   2.37403000E-01
   2.11205000E+00   -2.56919000E-03   8.17592000E-01
SP   1    1.000000
   6.84009000E-01    1.00000000E+00   1.00000000E+00
SP   1    1.000000
   2.00878000E-01    1.00000000E+00   1.00000000E+00
SP   1    1.000000
   6.39000000E-02    1.00000000E+00   1.00000000E+00
SP   1    1.000000
   1.92469880E-02    1.00000000E+00   1.00000000E+00
D    1    1.000000
   9.13000000E-01    1.00000000E+00
****
C    0
S    1    1.000000
   4.56324000E+03    1.96665000E-03
S    1    1.000000
   6.82024000E+02    1.52306000E-02
S    1    1.000000
   1.54973000E+02    7.61269000E-02
S    1    1.000000
   4.44553000E+01    2.60801000E-01
S    1    1.000000
   1.30290000E+01    6.16462000E-01
S    1    1.000000
   1.82773000E+00    2.21006000E-01
SP   3    1.000000
   2.09642000E+01    1.14660000E-01   4.02487000E-02
   4.80331000E+00    9.19999000E-01   2.37594000E-01
   1.45933000E+00   -3.03068000E-03   8.15854000E-01
SP   1    1.000000
   4.83456000E-01    1.00000000E+00   1.00000000E+00
SP   1    1.000000
   1.45585000E-01    1.00000000E+00   1.00000000E+00
SP   1    1.000000
   4.38000000E-02    1.00000000E+00   1.00000000E+00
SP   1    1.000000
   1.31927711E-02    1.00000000E+00   1.00000000E+00
D    1    1.000000
   6.26000000E-01    1.00000000E+00
****
$end
--------------------------------------------------------------
 ----------------------------------------------------------------
             Standard Nuclear Orientation (Angstroms)
    I     Atom           X                Y                Z
 ----------------------------------------------------------------
    1      C      -0.0071423615    -1.7021374661    -0.0000000000
    2      H      -2.0688284730    -1.4402241233     0.0000000000
    3      H      -0.1233798667    -2.7756752113     0.0000000000
    4      H       0.0465189185     1.9881394681    -0.0000000000
    5      C      -1.2195356258     0.4021166886     0.0000000000
    6      O      -2.2592155329     1.0304381418     0.0000000000
    7      C       1.2879780632     0.3464493659    -0.0000000000
    8      O       2.3127366072     1.0053721559    -0.0000000000
    9      N       0.0344629504     0.9773985746    -0.0000000000
   10      N      -1.1728776526    -0.9822982369     0.0000000000
   11      C       1.2010703878    -1.1043341925    -0.0000000000
   12      H       2.1122009607    -1.6769912546    -0.0000000000
 ----------------------------------------------------------------
 Molecular Point Group                 Cs    NOp =  2
 Largest Abelian Subgroup              Cs    NOp =  2
 Nuclear Repulsion Energy =         357.01163035 hartrees
 There are       29 alpha and       29 beta electrons
 Requested basis set is non-standard
Basis set in general basis input format:
-----------------------------------------------------------------------
$basis
C    0
S    1    1.000000
   4.56324000E+03    1.96665000E-03 
S    1    1.000000
   6.82024000E+02    1.52306000E-02 
S    1    1.000000
   1.54973000E+02    7.61269000E-02 
S    1    1.000000
   4.44553000E+01    2.60801000E-01 
S    1    1.000000
   1.30290000E+01    6.16462000E-01 
S    1    1.000000
   1.82773000E+00    2.21006000E-01 
SP   3    1.000000
   2.09642000E+01    1.14660000E-01   4.02487000E-02 
   4.80331000E+00    9.19999000E-01   2.37594000E-01 
   1.45933000E+00   -3.03068000E-03   8.15854000E-01 
SP   1    1.000000
   4.83456000E-01    1.00000000E+00   1.00000000E+00 
SP   1    1.000000
   1.45585000E-01    1.00000000E+00   1.00000000E+00 
SP   1    1.000000
   4.38000000E-02    1.00000000E+00   1.00000000E+00 
SP   1    1.000000
   1.31927711E-02    1.00000000E+00   1.00000000E+00 
D    1    1.000000
   6.26000000E-01    1.00000000E+00 
****
H    0
S    3    1.000000
   3.38650000E+01    2.54938000E-02 
   5.09479000E+00    1.90373000E-01 
   1.15879000E+00    8.52161000E-01 
S    1    1.000000
   3.25840000E-01    1.00000000E+00 
S    1    1.000000
   1.02741000E-01    1.00000000E+00 
S    1    1.000000
   3.60000000E-02    1.00000000E+00 
P    1    1.000000
   7.50000000E-01    1.00000000E+00 
****
H    0
S    3    1.000000
   3.38650000E+01    2.54938000E-02 
   5.09479000E+00    1.90373000E-01 
   1.15879000E+00    8.52161000E-01 
S    1    1.000000
   3.25840000E-01    1.00000000E+00 
S    1    1.000000
   1.02741000E-01    1.00000000E+00 
S    1    1.000000
   3.60000000E-02    1.00000000E+00 
P    1    1.000000
   7.50000000E-01    1.00000000E+00 
****
H    0
S    3    1.000000
   3.38650000E+01    2.54938000E-02 
   5.09479000E+00    1.90373000E-01 
   1.15879000E+00    8.52161000E-01 
S    1    1.000000
   3.25840000E-01    1.00000000E+00 
S    1    1.000000
   1.02741000E-01    1.00000000E+00 
S    1    1.000000
   3.60000000E-02    1.00000000E+00 
P    1    1.000000
   7.50000000E-01    1.00000000E+00 
****
C    0
S    1    1.000000
   4.56324000E+03    1.96665000E-03 
S    1    1.000000
   6.82024000E+02    1.52306000E-02 
S    1    1.000000
   1.54973000E+02    7.61269000E-02 
S    1    1.000000
   4.44553000E+01    2.60801000E-01 
S    1    1.000000
   1.30290000E+01    6.16462000E-01 
S    1    1.000000
   1.82773000E+00    2.21006000E-01 
SP   3    1.000000
   2.09642000E+01    1.14660000E-01   4.02487000E-02 
   4.80331000E+00    9.19999000E-01   2.37594000E-01 
   1.45933000E+00   -3.03068000E-03   8.15854000E-01 
SP   1    1.000000
   4.83456000E-01    1.00000000E+00   1.00000000E+00 
SP   1    1.000000
   1.45585000E-01    1.00000000E+00   1.00000000E+00 
SP   1    1.000000
   4.38000000E-02    1.00000000E+00   1.00000000E+00 
SP   1    1.000000
   1.31927711E-02    1.00000000E+00   1.00000000E+00 
D    1    1.000000
   6.26000000E-01    1.00000000E+00 
****
O    0
S    1    1.000000
   8.58850000E+03    1.89515000E-03 
S    1    1.000000
   1.29723000E+03    1.43859000E-02 
S    1    1.000000
   2.99296000E+02    7.07320000E-02 
S    1    1.000000
   8.73771000E+01    2.40001000E-01 
S    1    1.000000
   2.56789000E+01    5.94797000E-01 
S    1    1.000000
   3.74004000E+00    2.80802000E-01 
SP   3    1.000000
   4.21175000E+01    1.13889000E-01   3.65114000E-02 
   9.62837000E+00    9.20811000E-01   2.37153000E-01 
   2.85332000E+00   -3.27447000E-03   8.19702000E-01 
SP   1    1.000000
   9.05661000E-01    1.00000000E+00   1.00000000E+00 
SP   1    1.000000
   2.55611000E-01    1.00000000E+00   1.00000000E+00 
SP   1    1.000000
   8.45000000E-02    1.00000000E+00   1.00000000E+00 
SP   1    1.000000
   2.54518072E-02    1.00000000E+00   1.00000000E+00 
D    1    1.000000
   1.29200000E+00    1.00000000E+00 
****
C    0
S    1    1.000000
   4.56324000E+03    1.96665000E-03 
S    1    1.000000
   6.82024000E+02    1.52306000E-02 
S    1    1.000000
   1.54973000E+02    7.61269000E-02 
S    1    1.000000
   4.44553000E+01    2.60801000E-01 
S    1    1.000000
   1.30290000E+01    6.16462000E-01 
S    1    1.000000
   1.82773000E+00    2.21006000E-01 
SP   3    1.000000
   2.09642000E+01    1.14660000E-01   4.02487000E-02 
   4.80331000E+00    9.19999000E-01   2.37594000E-01 
   1.45933000E+00   -3.03068000E-03   8.15854000E-01 
SP   1    1.000000
   4.83456000E-01    1.00000000E+00   1.00000000E+00 
SP   1    1.000000
   1.45585000E-01    1.00000000E+00   1.00000000E+00 
SP   1    1.000000
   4.38000000E-02    1.00000000E+00   1.00000000E+00 
SP   1    1.000000
   1.31927711E-02    1.00000000E+00   1.00000000E+00 
D    1    1.000000
   6.26000000E-01    1.00000000E+00 
****
O    0
S    1    1.000000
   8.58850000E+03    1.89515000E-03 
S    1    1.000000
   1.29723000E+03    1.43859000E-02 
S    1    1.000000
   2.99296000E+02    7.07320000E-02 
S    1    1.000000
   8.73771000E+01    2.40001000E-01 
S    1    1.000000
   2.56789000E+01    5.94797000E-01 
S    1    1.000000
   3.74004000E+00    2.80802000E-01 
SP   3    1.000000
   4.21175000E+01    1.13889000E-01   3.65114000E-02 
   9.62837000E+00    9.20811000E-01   2.37153000E-01 
   2.85332000E+00   -3.27447000E-03   8.19702000E-01 
SP   1    1.000000
   9.05661000E-01    1.00000000E+00   1.00000000E+00 
SP   1    1.000000
   2.55611000E-01    1.00000000E+00   1.00000000E+00 
SP   1    1.000000
   8.45000000E-02    1.00000000E+00   1.00000000E+00 
SP   1    1.000000
   2.54518072E-02    1.00000000E+00   1.00000000E+00 
D    1    1.000000
   1.29200000E+00    1.00000000E+00 
****
N    0
S    1    1.000000
   6.29348000E+03    1.96979000E-03 
S    1    1.000000
   9.49044000E+02    1.49613000E-02 
S    1    1.000000
   2.18776000E+02    7.35006000E-02 
S    1    1.000000
   6.36916000E+01    2.48937000E-01 
S    1    1.000000
   1.88282000E+01    6.02460000E-01 
S    1    1.000000
   2.72023000E+00    2.56202000E-01 
SP   3    1.000000
   3.06331000E+01    1.11906000E-01   3.83119000E-02 
   7.02614000E+00    9.21666000E-01   2.37403000E-01 
   2.11205000E+00   -2.56919000E-03   8.17592000E-01 
SP   1    1.000000
   6.84009000E-01    1.00000000E+00   1.00000000E+00 
SP   1    1.000000
   2.00878000E-01    1.00000000E+00   1.00000000E+00 
SP   1    1.000000
   6.39000000E-02    1.00000000E+00   1.00000000E+00 
SP   1    1.000000
   1.92469880E-02    1.00000000E+00   1.00000000E+00 
D    1    1.000000
   9.13000000E-01    1.00000000E+00 
****
N    0
S    1    1.000000
   6.29348000E+03    1.96979000E-03 
S    1    1.000000
   9.49044000E+02    1.49613000E-02 
S    1    1.000000
   2.18776000E+02    7.35006000E-02 
S    1    1.000000
   6.36916000E+01    2.48937000E-01 
S    1    1.000000
   1.88282000E+01    6.02460000E-01 
S    1    1.000000
   2.72023000E+00    2.56202000E-01 
SP   3    1.000000
   3.06331000E+01    1.11906000E-01   3.83119000E-02 
   7.02614000E+00    9.21666000E-01   2.37403000E-01 
   2.11205000E+00   -2.56919000E-03   8.17592000E-01 
SP   1    1.000000
   6.84009000E-01    1.00000000E+00   1.00000000E+00 
SP   1    1.000000
   2.00878000E-01    1.00000000E+00   1.00000000E+00 
SP   1    1.000000
   6.39000000E-02    1.00000000E+00   1.00000000E+00 
SP   1    1.000000
   1.92469880E-02    1.00000000E+00   1.00000000E+00 
D    1    1.000000
   9.13000000E-01    1.00000000E+00 
****
C    0
S    1    1.000000
   4.56324000E+03    1.96665000E-03 
S    1    1.000000
   6.82024000E+02    1.52306000E-02 
S    1    1.000000
   1.54973000E+02    7.61269000E-02 
S    1    1.000000
   4.44553000E+01    2.60801000E-01 
S    1    1.000000
   1.30290000E+01    6.16462000E-01 
S    1    1.000000
   1.82773000E+00    2.21006000E-01 
SP   3    1.000000
   2.09642000E+01    1.14660000E-01   4.02487000E-02 
   4.80331000E+00    9.19999000E-01   2.37594000E-01 
   1.45933000E+00   -3.03068000E-03   8.15854000E-01 
SP   1    1.000000
   4.83456000E-01    1.00000000E+00   1.00000000E+00 
SP   1    1.000000
   1.45585000E-01    1.00000000E+00   1.00000000E+00 
SP   1    1.000000
   4.38000000E-02    1.00000000E+00   1.00000000E+00 
SP   1    1.000000
   1.31927711E-02    1.00000000E+00   1.00000000E+00 
D    1    1.000000
   6.26000000E-01    1.00000000E+00 
****
H    0
S    3    1.000000
   3.38650000E+01    2.54938000E-02 
   5.09479000E+00    1.90373000E-01 
   1.15879000E+00    8.52161000E-01 
S    1    1.000000
   3.25840000E-01    1.00000000E+00 
S    1    1.000000
   1.02741000E-01    1.00000000E+00 
S    1    1.000000
   3.60000000E-02    1.00000000E+00 
P    1    1.000000
   7.50000000E-01    1.00000000E+00 
****
$end
-----------------------------------------------------------------------
 There are 116 shells and 276 basis functions
 WARNING: the default MEM_TOTAL is adjusted according to given MEM_STATIC!
 Total memory of 40192 MB is distributed as follows: 
   MEM_STATIC is set to 192 MB
   QALLOC/CCMAN JOB total memory use is  40000 MB
 Warning: actual memory use might exceed 40192 MB

 Total QAlloc Memory Limit  40192 MB
 Mega-Array Size       188 MB
 MEM_STATIC part       192 MB

                       Distance Matrix (Angstroms)
             C (  1)   H (  2)   H (  3)   H (  4)   C (  5)   O (  6)
   H (  2)  2.078256
   H (  3)  1.079812  2.359703
   H (  4)  3.690667  4.028445  4.766843
   C (  5)  2.428535  2.028674  3.361535  2.029375
   O (  6)  3.541017  2.477987  4.364435  2.496718  1.214793
   C (  7)  2.423643  3.802677  3.426309  2.058244  2.508132  3.612537
   O (  8)  3.565452  5.017873  4.497886  2.470136  3.583415  4.572021
   N (  9)  2.679859  3.204487  3.756392  1.010813  1.379660  2.294292
   N ( 10)  1.370076  1.006193  2.077895  3.210986  1.385201  2.287190
   C ( 11)  1.348016  3.287105  2.132498  3.300967  2.851092  4.065813
   H ( 12)  2.119492  4.187728  2.490969  4.207164  3.927233  5.141931
             C (  7)   O (  8)   N (  9)   N ( 10)   C ( 11)
   O (  8)  1.218322
   N (  9)  1.403352  2.278445
   N ( 10)  2.796673  4.012523  2.301756
   C ( 11)  1.453384  2.384672  2.386333  2.377083
   H ( 12)  2.184870  2.689849  3.370872  3.357728  1.076148

 A cutoff of  1.0D-14 yielded   5442 shell pairs
 There are     35779 function pairs (     37954 Cartesian)
 Smallest overlap matrix eigenvalue = 2.79E-07
 Linear dependence detected in AO basis
 Tighter screening thresholds may be required for diffuse basis sets
 Use S2THRESH > 14 and THRESH = 14 in case of SCF convergence issues
 Number of orthogonalized atomic orbitals = 274
 Maximum deviation from orthogonality = 1.629E-10

 Scale SEOQF with 1.000000e-01/1.000000e-01/1.000000e-01

 Standard Electronic Orientation quadrupole field applied
 Nucleus-field energy     =     0.0000000098 hartrees
 Guess MOs from core Hamiltonian diagonalization

 -----------------------------------------------------------------------
  General SCF calculation program by
  Eric Jon Sundstrom, Paul Horn, Yuezhi Mao, Dmitri Zuev, Alec White,
  David Stuck, Shaama M.S., Shane Yost, Joonho Lee, David Small,
  Daniel Levine, Susi Lehtola, Hugh Burton, Evgeny Epifanovsky
 -----------------------------------------------------------------------
 Hartree-Fock
 using 4 threads for integral computing
 -------------------------------------------------------
 OpenMP Integral computing Module                
 Release: version 2.0, May 2017, Q-Chem Inc. Pleasanton 
 -------------------------------------------------------
 A restricted SCF calculation will be
 performed using DIIS
 SCF converges when DIIS error is below 1.0e-08
 ---------------------------------------
  Cycle       Energy         DIIS error
 ---------------------------------------
    1    -317.6975975837      1.18e-01  
    2    -296.6539414639      6.20e-02  
    3    -298.4325676475      7.94e-02  
    4    -386.6563647127      4.37e-02  
    5    -406.3540777216      2.27e-02  
    6    -409.8825654373      1.65e-02  
    7    -412.4527394886      2.86e-03  
    8    -412.5540542321      1.08e-03  
    9    -412.5713955530      6.06e-04  
   10    -412.5782834312      2.50e-04  
   11    -412.5798894298      1.35e-04  
   12    -412.5802387821      5.44e-05  
   13    -412.5803259988      2.02e-05  
   14    -412.5803330363      5.99e-06  
   15    -412.5803334671      1.83e-06  
   16    -412.5803335191      5.97e-07  
   17    -412.5803335244      2.14e-07  
   18    -412.5803335254      7.82e-08  
   19    -412.5803335256      1.86e-08  
   20    -412.5803335256      5.20e-09  Convergence criterion met
 ---------------------------------------
 SCF time:   CPU 181.69s  wall 49.00s 
 SCF   energy in the final basis set =     -412.5803335256
 Total energy in the final basis set =     -412.5803335256


 ------------------------------------------------------------------------------

   CCMAN2: suite of methods based on coupled cluster
           and equation of motion theories.

   Components:
   * libvmm-1.3-trunk
     by Evgeny Epifanovsky, Ilya Kaliman.
   * libtensor-2.5-trunk
     by Evgeny Epifanovsky, Michael Wormit, Dmitry Zuev, Sam Manzer, 
        Ilya Kaliman.
   * libcc-2.5-trunk
     by Evgeny Epifanovsky, Arik Landau, Tomasz Kus, Kirill Khistyaev, 
        Dmitry Zuev, Prashant Manohar, Xintian Feng, Anna Krylov, 
        Matthew Goldey, Alec White, Thomas Jagau, Kaushik Nanda, 
        Anastasia Gunina, Alexander Kunitsa, Joonho Lee.

   CCMAN original authors:
   Anna I. Krylov, C. David Sherrill, Steven R. Gwaltney,
   Edward F. C. Byrd (2000)
   Sergey V. Levchenko, Lyudmila V. Slipchenko, Tao Wang,
   Ana-Maria C. Cristian (2003)
   Piotr A. Pieniazek, C. Melania Oana, Evgeny Epifanovsky (2007)
   Prashant Manohar (2009)

 ------------------------------------------------------------------------------


 Allocating and initializing 40000MB of RAM...
 Calculation will run on 4 cores.


 Alpha MOs, Restricted
 -- Occupied --                  
-20.550 -20.545 -15.649 -15.632 -11.427 -11.388 -11.346 -11.261
  1 A'    2 A'    3 A'    4 A'    5 A'    6 A'    7 A'    8 A'                 
 -1.442  -1.404  -1.318  -1.250  -1.093  -0.938  -0.906  -0.812
  9 A'   10 A'   11 A'   12 A'   13 A'   14 A'   15 A'   16 A'                 
 -0.770  -0.718  -0.681  -0.671  -0.657  -0.619  -0.605  -0.573
 17 A'   18 A'   19 A'    1 A"   20 A'   21 A'   22 A'    2 A"                 
 -0.528  -0.487  -0.452  -0.438  -0.371
  3 A"   23 A'   24 A'    4 A"    5 A"                                         
 -- Virtual --                   
  0.005   0.019   0.020   0.022   0.031   0.033   0.035   0.036
 25 A'   26 A'    6 A"   27 A'   28 A'   29 A'   30 A'    7 A"                 
  0.038   0.046   0.047   0.049   0.053   0.054   0.055   0.068
  8 A"   31 A'   32 A'   33 A'   34 A'    9 A"   35 A'   36 A'                 
  0.072   0.072   0.079   0.085   0.086   0.088   0.095   0.097
 10 A"   37 A'   11 A"   38 A'   12 A"   39 A'   40 A'   41 A'                 
  0.112   0.116   0.118   0.120   0.127   0.131   0.134   0.137
 13 A"   14 A"   42 A'   43 A'   44 A'   45 A'   46 A'   47 A'                 
  0.138   0.155   0.162   0.164   0.172   0.184   0.189   0.195
 48 A'   15 A"   49 A'   50 A'   16 A"   51 A'   17 A"   52 A'                 
  0.209   0.210   0.224   0.230   0.235   0.241   0.243   0.260
 53 A'   18 A"   54 A'   55 A'   56 A'   19 A"   57 A'   58 A'                 
  0.266   0.270   0.278   0.279   0.286   0.296   0.300   0.333
 59 A'   60 A'   20 A"   61 A'   62 A'   21 A"   63 A'   22 A"                 
  0.333   0.347   0.373   0.388   0.391   0.405   0.410   0.410
 64 A'   65 A'   66 A'   67 A'   68 A'   69 A'   23 A"   70 A'                 
  0.420   0.422   0.441   0.449   0.455   0.463   0.481   0.482
 24 A"   71 A'   72 A'   73 A'   74 A'   75 A'   76 A'   77 A'                 
  0.505   0.529   0.545   0.558   0.615   0.630   0.655   0.706
 78 A'   79 A'   80 A'   81 A'   82 A'   83 A'   84 A'   85 A'                 
  0.734   0.740   0.761   0.776   0.778   0.799   0.822   0.824
 86 A'   25 A"   87 A'   26 A"   88 A'   27 A"   28 A"   89 A'                 
  0.878   0.888   0.938   0.963   0.971   0.979   1.008   1.015
 90 A'   91 A'   92 A'   93 A'   94 A'   95 A'   96 A'   97 A'                 
  1.029   1.042   1.061   1.093   1.100   1.114   1.159   1.227
 98 A'   29 A"   99 A'   30 A"  100 A'  101 A'  102 A'   31 A"                 
  1.242   1.245   1.270   1.301   1.368   1.370   1.393   1.406
 32 A"  103 A'  104 A'  105 A'  106 A'   33 A"   34 A"   35 A"                 
  1.421   1.441   1.460   1.464   1.513   1.515   1.543   1.557
 36 A"  107 A'  108 A'   37 A"   38 A"  109 A'  110 A'  111 A'                 
  1.583   1.760   1.777   1.803   1.814   1.877   1.899   1.915
112 A'  113 A'  114 A'  115 A'   39 A"  116 A'   40 A"  117 A'                 
  1.929   1.952   1.980   2.013   2.014   2.067   2.124   2.143
 41 A"  118 A'  119 A'   42 A"  120 A'  121 A'  122 A'  123 A'                 
  2.186   2.223   2.236   2.283   2.299   2.340   2.358   2.532
124 A'   43 A"  125 A'  126 A'  127 A'   44 A"  128 A'  129 A'                 
  2.566   2.589   2.643   2.668   2.728   2.807   2.822   2.851
 45 A"  130 A'   46 A"  131 A'   47 A"  132 A'   48 A"  133 A'                 
  2.932   2.957   3.006   3.019   3.048   3.094   3.168   3.181
134 A'  135 A'  136 A'  137 A'  138 A'   49 A"   50 A"  139 A'                 
  3.184   3.211   3.263   3.271   3.297   3.310   3.325   3.347
 51 A"  140 A'   52 A"  141 A'  142 A'   53 A"  143 A'   54 A"                 
  3.401   3.515   3.588   3.756   3.766   3.819   3.840   3.876
144 A'  145 A'  146 A'   55 A"   56 A"  147 A'  148 A'  149 A'                 
  3.914   3.959   4.017   4.049   4.106   4.288   4.305   4.364
150 A'  151 A'  152 A'  153 A'  154 A'  155 A'   57 A"   58 A"                 
  4.411   4.485   4.605   5.012   5.158   5.288   5.441   5.553
156 A'  157 A'  158 A'  159 A'  160 A'  161 A'  162 A'  163 A'                 
  5.625   5.633   5.690   5.713   5.782   5.864   5.902   6.438
 59 A"   60 A"  164 A'  165 A'  166 A'  167 A'  168 A'  169 A'                 
  6.445   7.668   7.729   9.888   9.934  20.639  20.695  20.726
170 A'  171 A'  172 A'  173 A'  174 A'  175 A'  176 A'  177 A'                 
 20.897  30.195  30.235  40.894  40.935  80.190  80.235  80.273
178 A'  179 A'  180 A'  181 A'  182 A'  183 A'  184 A'  185 A'                 
 80.428 116.314 116.350 159.240 159.273 322.013 322.053 322.094
186 A'  187 A'  188 A'  189 A'  190 A'  191 A'  192 A'  193 A'                 
322.233 460.413 460.445 631.938 631.9651431.5641431.6041431.646
194 A'  195 A'  196 A'  197 A'  198 A'  199 A'  200 A'  201 A'                 
*******2012.8872012.9162759.3342759.3578749.7838749.8248749.866
202 A'  203 A'  204 A'  205 A'  206 A'  207 A'  208 A'  209 A'                 
***************************************
210 A'  211 A'  212 A'  213 A'  214 A'                                         

 Beta MOs, Restricted
 -- Occupied --                  
-20.550 -20.545 -15.649 -15.632 -11.427 -11.388 -11.346 -11.261
  1 A'    2 A'    3 A'    4 A'    5 A'    6 A'    7 A'    8 A'                 
 -1.442  -1.404  -1.318  -1.250  -1.093  -0.938  -0.906  -0.812
  9 A'   10 A'   11 A'   12 A'   13 A'   14 A'   15 A'   16 A'                 
 -0.770  -0.718  -0.681  -0.671  -0.657  -0.619  -0.605  -0.573
 17 A'   18 A'   19 A'    1 A"   20 A'   21 A'   22 A'    2 A"                 
 -0.528  -0.487  -0.452  -0.438  -0.371
  3 A"   23 A'   24 A'    4 A"    5 A"                                         
 -- Virtual --                   
  0.005   0.019   0.020   0.022   0.031   0.033   0.035   0.036
 25 A'   26 A'    6 A"   27 A'   28 A'   29 A'   30 A'    7 A"                 
  0.038   0.046   0.047   0.049   0.053   0.054   0.055   0.068
  8 A"   31 A'   32 A'   33 A'   34 A'    9 A"   35 A'   36 A'                 
  0.072   0.072   0.079   0.085   0.086   0.088   0.095   0.097
 10 A"   37 A'   11 A"   38 A'   12 A"   39 A'   40 A'   41 A'                 
  0.112   0.116   0.118   0.120   0.127   0.131   0.134   0.137
 13 A"   14 A"   42 A'   43 A'   44 A'   45 A'   46 A'   47 A'                 
  0.138   0.155   0.162   0.164   0.172   0.184   0.189   0.195
 48 A'   15 A"   49 A'   50 A'   16 A"   51 A'   17 A"   52 A'                 
  0.209   0.210   0.224   0.230   0.235   0.241   0.243   0.260
 53 A'   18 A"   54 A'   55 A'   56 A'   19 A"   57 A'   58 A'                 
  0.266   0.270   0.278   0.279   0.286   0.296   0.300   0.333
 59 A'   60 A'   20 A"   61 A'   62 A'   21 A"   63 A'   22 A"                 
  0.333   0.347   0.373   0.388   0.391   0.405   0.410   0.410
 64 A'   65 A'   66 A'   67 A'   68 A'   69 A'   23 A"   70 A'                 
  0.420   0.422   0.441   0.449   0.455   0.463   0.481   0.482
 24 A"   71 A'   72 A'   73 A'   74 A'   75 A'   76 A'   77 A'                 
  0.505   0.529   0.545   0.558   0.615   0.630   0.655   0.706
 78 A'   79 A'   80 A'   81 A'   82 A'   83 A'   84 A'   85 A'                 
  0.734   0.740   0.761   0.776   0.778   0.799   0.822   0.824
 86 A'   25 A"   87 A'   26 A"   88 A'   27 A"   28 A"   89 A'                 
  0.878   0.888   0.938   0.963   0.971   0.979   1.008   1.015
 90 A'   91 A'   92 A'   93 A'   94 A'   95 A'   96 A'   97 A'                 
  1.029   1.042   1.061   1.093   1.100   1.114   1.159   1.227
 98 A'   29 A"   99 A'   30 A"  100 A'  101 A'  102 A'   31 A"                 
  1.242   1.245   1.270   1.301   1.368   1.370   1.393   1.406
 32 A"  103 A'  104 A'  105 A'  106 A'   33 A"   34 A"   35 A"                 
  1.421   1.441   1.460   1.464   1.513   1.515   1.543   1.557
 36 A"  107 A'  108 A'   37 A"   38 A"  109 A'  110 A'  111 A'                 
  1.583   1.760   1.777   1.803   1.814   1.877   1.899   1.915
112 A'  113 A'  114 A'  115 A'   39 A"  116 A'   40 A"  117 A'                 
  1.929   1.952   1.980   2.013   2.014   2.067   2.124   2.143
 41 A"  118 A'  119 A'   42 A"  120 A'  121 A'  122 A'  123 A'                 
  2.186   2.223   2.236   2.283   2.299   2.340   2.358   2.532
124 A'   43 A"  125 A'  126 A'  127 A'   44 A"  128 A'  129 A'                 
  2.566   2.589   2.643   2.668   2.728   2.807   2.822   2.851
 45 A"  130 A'   46 A"  131 A'   47 A"  132 A'   48 A"  133 A'                 
  2.932   2.957   3.006   3.019   3.048   3.094   3.168   3.181
134 A'  135 A'  136 A'  137 A'  138 A'   49 A"   50 A"  139 A'                 
  3.184   3.211   3.263   3.271   3.297   3.310   3.325   3.347
 51 A"  140 A'   52 A"  141 A'  142 A'   53 A"  143 A'   54 A"                 
  3.401   3.515   3.588   3.756   3.766   3.819   3.840   3.876
144 A'  145 A'  146 A'   55 A"   56 A"  147 A'  148 A'  149 A'                 
  3.914   3.959   4.017   4.049   4.106   4.288   4.305   4.364
150 A'  151 A'  152 A'  153 A'  154 A'  155 A'   57 A"   58 A"                 
  4.411   4.485   4.605   5.012   5.158   5.288   5.441   5.553
156 A'  157 A'  158 A'  159 A'  160 A'  161 A'  162 A'  163 A'                 
  5.625   5.633   5.690   5.713   5.782   5.864   5.902   6.438
 59 A"   60 A"  164 A'  165 A'  166 A'  167 A'  168 A'  169 A'                 
  6.445   7.668   7.729   9.888   9.934  20.639  20.695  20.726
170 A'  171 A'  172 A'  173 A'  174 A'  175 A'  176 A'  177 A'                 
 20.897  30.195  30.235  40.894  40.935  80.190  80.235  80.273
178 A'  179 A'  180 A'  181 A'  182 A'  183 A'  184 A'  185 A'                 
 80.428 116.314 116.350 159.240 159.273 322.013 322.053 322.094
186 A'  187 A'  188 A'  189 A'  190 A'  191 A'  192 A'  193 A'                 
322.233 460.413 460.445 631.938 631.9651431.5641431.6041431.646
194 A'  195 A'  196 A'  197 A'  198 A'  199 A'  200 A'  201 A'                 
*******2012.8872012.9162759.3342759.3578749.7838749.8248749.866
202 A'  203 A'  204 A'  205 A'  206 A'  207 A'  208 A'  209 A'                 
***************************************
210 A'  211 A'  212 A'  213 A'  214 A'                                         

 Occupation and symmetry of molecular orbitals

 Point group: Cs (2 irreducible representations).

                           A'   A"    All 
 ------------------------------------------
 All molecular orbitals:
  - Alpha                  214  60    274 
  - Beta                   214  60    274 
 ------------------------------------------
 Alpha orbitals:
  - Frozen occupied        4    0     4   
  - Active occupied        20   5     25  
  - Active virtual         190  55    245 
  - Frozen virtual         0    0     0   
 ------------------------------------------
 Beta orbitals:
  - Frozen occupied        4    0     4   
  - Active occupied        20   5     25  
  - Active virtual         190  55    245 
  - Frozen virtual         0    0     0   
 ------------------------------------------

 Import integrals:   CPU 0.00 s  wall 0.00 s

 Import integrals:   CPU 563.03 s  wall 182.56 s

 MP2 amplitudes:   CPU 2.56 s  wall 2.18 s

Running a double precision version
           CCSD T amplitudes will be solved using DIIS.

           Start     Size      MaxIter   EConv     TConv     
           3         7         100       1.00e-06  1.00e-04  
 ------------------------------------------------------------------------------
           Energy (a.u.)   Ediff      Tdiff       Comment
 ------------------------------------------------------------------------------
          -413.94909939                           
     1    -413.92081068   2.83e-02   1.02e+00     Step took 01.06.
     2    -413.96630651   4.55e-02   1.36e-01     
     3    -413.96228743   4.02e-03   5.71e-02     
     4    -413.96697501   4.69e-03   2.42e-02     Switched to DIIS steps.
     5    -413.96859166   1.62e-03   1.33e-02     
     6    -413.96874012   1.48e-04   3.45e-03     
     7    -413.96874251   2.39e-06   1.38e-03     
     8    -413.96873855   3.96e-06   4.37e-04     
     9    -413.96874124   2.69e-06   1.75e-04     
    10    -413.96874107   1.70e-07   5.40e-05     
 ------------------------------------------------------------------------------
          -413.96874107                           CCSD T converged.

End of double precision
 SCF energy                 = -412.58033353
 MP2 energy                 = -413.94909939
 CCSD correlation energy    =   -1.38840755
 CCSD total energy          = -413.96874107

 CCSD  T1^2 = 0.0267  T2^2 = 0.4135  Leading amplitudes:

 Amplitude    Orbitals with energies
  0.0377       2 (A") A                  ->    15 (A") A                  
              -0.5733                          0.1553                     
  0.0377       2 (A") B                  ->    15 (A") B                  
              -0.5733                          0.1553                     
 -0.0290       2 (A") A                  ->    11 (A") A                  
              -0.5733                          0.0787                     
 -0.0290       2 (A") B                  ->    11 (A") B                  
              -0.5733                          0.0787                     

 Amplitude    Orbitals with energies
 -0.0402       5 (A") A      5 (A") B    ->    11 (A") A     11 (A") B    
              -0.3712       -0.3712            0.0787        0.0787       
  0.0402       5 (A") A      5 (A") B    ->    11 (A") B     11 (A") A    
              -0.3712       -0.3712            0.0787        0.0787       
  0.0402       5 (A") B      5 (A") A    ->    11 (A") A     11 (A") B    
              -0.3712       -0.3712            0.0787        0.0787       
 -0.0402       5 (A") B      5 (A") A    ->    11 (A") B     11 (A") A    
              -0.3712       -0.3712            0.0787        0.0787       

 Computing CCSD intermediates for later calculations in double precision
 Finished.

Running a double precision version
           CCSD Lambda amplitudes will be solved using DIIS.
           Start     Size      MaxIter   EConv     LConv     
           3         7         100       1.00e-06  1.00e-04  
 ------------------------------------------------------------------------------
            Enorm      Ldiff       Comment
 ------------------------------------------------------------------------------
     1     7.16e-02   4.18e-02     
     2     2.66e-02   9.08e-03     
     3     1.21e-02   5.01e-04     
     4     5.01e-03   1.66e-03     Switched to DIIS steps.
     5     1.45e-03   9.41e-04     
     6     6.43e-04   2.01e-04     
     7     2.25e-04   5.54e-05     
     8     9.71e-05   1.02e-05     
     9     3.99e-05   3.60e-06     
    10     1.92e-05   1.36e-06     
    11     8.59e-06   1.98e-07     
    12     3.33e-06   1.86e-07     
    13     1.37e-06   2.56e-08     
    14     5.86e-07   8.83e-09     
 ------------------------------------------------------------------------------
                                   CCSD Lambda converged.

 CCSD calculation:   CPU 5373.94 s  wall 1633.23 s

        Solving for EOMEE-CCSD A' singlet states.

Running a double precision version
        EOMEE-CCSD/MP2 right amplitudes will be solved using Davidson.
        Amplitudes will be solved using standard  algorithm.
     Hard-coded thresholds: 
     LinDepThresh=1.00e-15  NormThresh=1.00e-06  ReorthogonThresh=1.00e-02

      Roots     MaxVec    MaxIter   Precond   Conv      Shift    
      3         120       60        1         1.00e-05  0.00e+00  
 ------------------------------------------------------------------------------
      Iter ConvRoots NVecs ResNorm Current eigenvalues (eV)
 ------------------------------------------------------------------------------
      0    0      3     1.45e-01   10.3216   10.9805   11.0214   
      1    0      6     4.83e-01   8.6551   9.3059   9.3380   
      2    0      9     2.01e-02   7.5384   8.2297   8.2489   
      3    0      12    6.21e-03   7.3297   8.0573   8.1064   
      4    0      15    1.44e-02   7.1719   7.8295   8.0208   
      5    0      18    3.87e-02   6.8155   7.2852   7.8348   
      6    0      21    1.34e-02   6.1672   7.1625   7.5432   
      7    0      24    1.45e-02   5.7820   7.1345   7.2292   
      8    0      27    4.33e-03   5.6869   7.0648   7.1275   
      9    0      30    4.11e-04   5.6661   7.0144   7.1248   
      10   0      33    4.72e-04   5.6624   7.0029   7.1231   
      11   0      36    3.20e-04   5.6612   6.9898   7.1213   
      12   0      39    7.28e-04   5.6608   6.9694   7.1170   
      13   1      42    1.77e-03   5.6606*  6.9289   7.1032   
      14   1      44    1.05e-03   5.6605*  6.8739   7.0764   
      15   1      46    2.36e-03   5.6606*  6.8104   7.0499   
      16   1      48    7.29e-04   5.6606*  6.7558   7.0374   
      17   1      50    3.73e-04   5.6606*  6.7325   7.0305   
      18   1      52    1.96e-04   5.6606*  6.7230   7.0283   
      19   1      54    3.56e-05   5.6606*  6.7197   7.0267   
      20   1      56    3.92e-05   5.6606*  6.7186   7.0260   
      21   2      58    7.44e-06   5.6606*  6.7180*  7.0258   
      22   2      59    6.03e-06   5.6606*  6.7180*  7.0256   
      23   2      60    7.00e-06   5.6606*  6.7180*  7.0255   
      24   3      61    3.51e-06   5.6606*  6.7180*  7.0254*  

     Davidson procedure converged

 EOMEE transition 1/A'
 Total energy = -413.76071828 a.u.  Excitation energy = 5.6606 eV.
 R0^2 = 0.0002  R1^2 = 0.9106  R2^2 = 0.0894  Res^2 = 1.27e-06
 Conv-d = yes

 Amplitude    Transitions between orbitals
 -0.5058       5 (A") A                  ->    11 (A") A                  
 -0.5058       5 (A") B                  ->    11 (A") B                  
  0.2591       5 (A") A                  ->    12 (A") A                  
  0.2591       5 (A") B                  ->    12 (A") B                  
  0.2369       5 (A") A                  ->    10 (A") A                  
  0.2369       5 (A") B                  ->    10 (A") B                  

              Summary of significant orbitals:

               Number  Type             Irrep      Energy
               29      Occ  Alpha       5 (A")     -0.3712
               29      Occ  Beta        5 (A")     -0.3712
               46      Vir  Alpha      10 (A")      0.0716
               48      Vir  Alpha      11 (A")      0.0787
               50      Vir  Alpha      12 (A")      0.0859
               46      Vir  Beta       10 (A")      0.0716
               48      Vir  Beta       11 (A")      0.0787
               50      Vir  Beta       12 (A")      0.0859


 EOMEE transition 2/A'
 Total energy = -413.72185949 a.u.  Excitation energy = 6.7180 eV.
 R0^2 = 0.0000  R1^2 = 0.8883  R2^2 = 0.1117  Res^2 = 5.87e-06
 Conv-d = yes

 Amplitude    Transitions between orbitals
  0.4960       4 (A") A                  ->    11 (A") A                  
  0.4960       4 (A") B                  ->    11 (A") B                  
 -0.2613       4 (A") A                  ->    10 (A") A                  
 -0.2613       4 (A") B                  ->    10 (A") B                  
 -0.2131       4 (A") A                  ->    12 (A") A                  
 -0.2131       4 (A") B                  ->    12 (A") B                  
  0.1200       4 (A") A                  ->    16 (A") A                  
  0.1200       4 (A") B                  ->    16 (A") B                  

              Summary of significant orbitals:

               Number  Type             Irrep      Energy
               28      Occ  Alpha       4 (A")     -0.4384
               28      Occ  Beta        4 (A")     -0.4384
               46      Vir  Alpha      10 (A")      0.0716
               48      Vir  Alpha      11 (A")      0.0787
               50      Vir  Alpha      12 (A")      0.0859
               66      Vir  Alpha      16 (A")      0.1722
               46      Vir  Beta       10 (A")      0.0716
               48      Vir  Beta       11 (A")      0.0787
               50      Vir  Beta       12 (A")      0.0859
               66      Vir  Beta       16 (A")      0.1722


 EOMEE transition 3/A'
 Total energy = -413.71056140 a.u.  Excitation energy = 7.0254 eV.
 R0^2 = 0.0002  R1^2 = 0.9041  R2^2 = 0.0959  Res^2 = 3.40e-06
 Conv-d = yes

 Amplitude    Transitions between orbitals
 -0.4715       5 (A") A                  ->    15 (A") A                  
 -0.4715       5 (A") B                  ->    15 (A") B                  
 -0.2895       5 (A") A                  ->    14 (A") A                  
 -0.2895       5 (A") B                  ->    14 (A") B                  
  0.1527       5 (A") A                  ->    8 (A") A                   
  0.1527       5 (A") B                  ->    8 (A") B                   
  0.1295       5 (A") A                  ->    16 (A") A                  
  0.1295       5 (A") B                  ->    16 (A") B                  
 -0.1103       5 (A") A                  ->    18 (A") A                  
 -0.1103       5 (A") B                  ->    18 (A") B                  
  0.1030       4 (A") A                  ->    11 (A") A                  
  0.1030       4 (A") B                  ->    11 (A") B                  

              Summary of significant orbitals:

               Number  Type             Irrep      Energy
               28      Occ  Alpha       4 (A")     -0.4384
               29      Occ  Alpha       5 (A")     -0.3712
               28      Occ  Beta        4 (A")     -0.4384
               29      Occ  Beta        5 (A")     -0.3712
               38      Vir  Alpha       8 (A")      0.0383
               48      Vir  Alpha      11 (A")      0.0787
               55      Vir  Alpha      14 (A")      0.1156
               63      Vir  Alpha      15 (A")      0.1553
               66      Vir  Alpha      16 (A")      0.1722
               71      Vir  Alpha      18 (A")      0.2103
               38      Vir  Beta        8 (A")      0.0383
               48      Vir  Beta       11 (A")      0.0787
               55      Vir  Beta       14 (A")      0.1156
               63      Vir  Beta       15 (A")      0.1553
               66      Vir  Beta       16 (A")      0.1722
               71      Vir  Beta       18 (A")      0.2103


Running a double precision version
      EOM-CCSD/MP2 left amplitudes will be solved using Davidson.
        Amplitudes will be solved using MOM  algorithm.
     Hard-coded thresholds: 
     LinDepThresh=1.00e-15  NormThresh=1.00e-06  ReorthogonThresh=1.00e-02

      Roots     MaxVec    MaxIter   Precond   Conv      Shift    
      3         120       60        1         1.00e-05  0.00e+00  
 ------------------------------------------------------------------------------
      Iter ConvRoots NVecs ResNorm Current eigenvalues (eV)
 ------------------------------------------------------------------------------
      0    0      3     1.29e-02   5.6606   6.7180   7.0254   
      1    0      6     6.07e+00   5.6606   6.7180   7.0254   
      2    0      9     3.81e-02   5.6606   6.7180   7.0254   
      3    0      12    5.29e-03   5.6606   6.7180   7.0253   
      4    0      15    1.62e-03   5.6606   6.7180   7.0253   
      5    1      18    4.61e-05   5.6606   6.7179   7.0253*  
      6    0      20    1.81e-04   5.6605   6.7179   7.0253   
      7    0      23    2.00e-04   5.6605   6.7179   7.0253   
      8    1      26    3.01e-05   5.6605*  6.7179   7.0253   
      9    1      28    4.08e-05   5.6605*  6.7179   7.0252   
      10   2      30    4.69e-05   5.6605*  6.7179*  7.0252   
      11   3      31    5.70e-06   5.6605*  6.7179*  7.0252*  

     Davidson procedure converged

        Solving for EOMEE-CCSD A" singlet states.

Running a double precision version
        EOMEE-CCSD/MP2 right amplitudes will be solved using Davidson.
        Amplitudes will be solved using standard  algorithm.
     Hard-coded thresholds: 
     LinDepThresh=1.00e-15  NormThresh=1.00e-06  ReorthogonThresh=1.00e-02

      Roots     MaxVec    MaxIter   Precond   Conv      Shift    
      3         120       60        1         1.00e-05  0.00e+00  
 ------------------------------------------------------------------------------
      Iter ConvRoots NVecs ResNorm Current eigenvalues (eV)
 ------------------------------------------------------------------------------
      0    0      3     1.47e-01   9.7652   10.4676   10.6507   
      1    0      6     7.87e+00   8.2085   8.8236   8.9800   
      2    0      9     3.47e-01   6.7885   7.6085   7.7521   
      3    0      12    1.89e-02   6.4050   7.3452   7.4680   
      4    0      15    1.53e-01   6.1539   7.1397   7.2182   
      5    0      18    5.42e-02   6.0587   7.0207   7.0430   
      6    0      21    1.98e-03   6.0349   6.9858   6.9903   
      7    0      24    7.21e-03   6.0315   6.9739   6.9808   
      8    0      27    2.55e-03   6.0309   6.9636   6.9772   
      9    0      30    6.51e-04   6.0306   6.9573   6.9753   
      10   0      33    1.41e-03   6.0305   6.9544   6.9731   
      11   1      36    3.24e-04   6.0306*  6.9526   6.9719   
      12   0      38    9.15e-02   6.0306   6.9028   6.9632   
      13   0      41    2.38e-01   5.8632   6.0306   6.9542   
      14   1      44    2.67e-02   5.3267   6.0306*  6.9533   
      15   1      46    1.21e-02   5.1938   6.0306*  6.9531   
      16   1      48    3.17e-03   5.1612   6.0306*  6.9529   
      17   1      50    6.28e-04   5.1505   6.0306*  6.9527   
      18   1      52    3.62e-02   5.1466   6.0306*  6.9338   
      19   1      54    2.40e-02   5.1444   6.0306*  6.6633   
      20   1      56    2.57e-03   5.1436   6.0306*  6.5482   
      21   1      58    3.82e-03   5.1435   6.0306*  6.5197   
      22   2      60    1.82e-04   5.1434*  6.0306*  6.5060   
      23   1      61    2.50e-04   5.1434   6.0306*  6.5045   
      24   2      63    4.36e-05   5.1434*  6.0306*  6.5028   
      25   2      64    2.39e-05   5.1434*  6.0306*  6.5028   
      26   2      65    1.38e-05   5.1435*  6.0306*  6.5025   
      27   3      66    2.16e-06   5.1434*  6.0306*  6.5025*  

     Davidson procedure converged

 EOMEE transition 1/A"
 Total energy = -413.77972312 a.u.  Excitation energy = 5.1434 eV.
 R0^2 = 0.0000  R1^2 = 0.9090  R2^2 = 0.0910  Res^2 = 1.62e-06
 Conv-d = yes

 Amplitude    Transitions between orbitals
  0.4565       24 (A') A                 ->    11 (A") A                  
  0.4565       24 (A') B                 ->    11 (A") B                  
 -0.2215       24 (A') A                 ->    12 (A") A                  
 -0.2215       24 (A') B                 ->    12 (A") B                  
 -0.2147       24 (A') A                 ->    10 (A") A                  
 -0.2147       24 (A') B                 ->    10 (A") B                  
 -0.1908       24 (A') A                 ->    15 (A") A                  
 -0.1908       24 (A') B                 ->    15 (A") B                  
  0.1575       24 (A') A                 ->    16 (A") A                  
  0.1575       24 (A') B                 ->    16 (A") B                  
 -0.1303       23 (A') A                 ->    11 (A") A                  
 -0.1303       23 (A') B                 ->    11 (A") B                  
 -0.1140       24 (A') A                 ->    21 (A") A                  
 -0.1140       24 (A') B                 ->    21 (A") B                  
 -0.1100       24 (A') A                 ->    14 (A") A                  
 -0.1100       24 (A') B                 ->    14 (A") B                  

              Summary of significant orbitals:

               Number  Type             Irrep      Energy
               26      Occ  Alpha      23 (A')     -0.4866
               27      Occ  Alpha      24 (A')     -0.4518
               26      Occ  Beta       23 (A')     -0.4866
               27      Occ  Beta       24 (A')     -0.4518
               46      Vir  Alpha      10 (A")      0.0716
               48      Vir  Alpha      11 (A")      0.0787
               50      Vir  Alpha      12 (A")      0.0859
               55      Vir  Alpha      14 (A")      0.1156
               63      Vir  Alpha      15 (A")      0.1553
               66      Vir  Alpha      16 (A")      0.1722
               83      Vir  Alpha      21 (A")      0.2958
               46      Vir  Beta       10 (A")      0.0716
               48      Vir  Beta       11 (A")      0.0787
               50      Vir  Beta       12 (A")      0.0859
               55      Vir  Beta       14 (A")      0.1156
               63      Vir  Beta       15 (A")      0.1553
               66      Vir  Beta       16 (A")      0.1722
               83      Vir  Beta       21 (A")      0.2958


 EOMEE transition 2/A"
 Total energy = -413.74712237 a.u.  Excitation energy = 6.0306 eV.
 R0^2 = 0.0000  R1^2 = 0.9279  R2^2 = 0.0721  Res^2 = 1.96e-07
 Conv-d = yes

 Amplitude    Transitions between orbitals
  0.4707       5 (A") A                  ->    25 (A') A                  
  0.4707       5 (A") B                  ->    25 (A') B                  
  0.2926       5 (A") A                  ->    32 (A') A                  
  0.2926       5 (A") B                  ->    32 (A') B                  
  0.1471       5 (A") A                  ->    30 (A') A                  
  0.1471       5 (A") B                  ->    30 (A') B                  
  0.1377       5 (A") A                  ->    33 (A') A                  
  0.1377       5 (A") B                  ->    33 (A') B                  
  0.1309       5 (A") A                  ->    39 (A') A                  
  0.1309       5 (A") B                  ->    39 (A') B                  
  0.1166       5 (A") A                  ->    45 (A') A                  
  0.1166       5 (A") B                  ->    45 (A') B                  

              Summary of significant orbitals:

               Number  Type             Irrep      Energy
               29      Occ  Alpha       5 (A")     -0.3712
               29      Occ  Beta        5 (A")     -0.3712
               30      Vir  Alpha      25 (A')      0.0049
               36      Vir  Alpha      30 (A')      0.0353
               40      Vir  Alpha      32 (A')      0.0472
               41      Vir  Alpha      33 (A')      0.0489
               51      Vir  Alpha      39 (A')      0.0882
               59      Vir  Alpha      45 (A')      0.1306
               30      Vir  Beta       25 (A')      0.0049
               36      Vir  Beta       30 (A')      0.0353
               40      Vir  Beta       32 (A')      0.0472
               41      Vir  Beta       33 (A')      0.0489
               51      Vir  Beta       39 (A')      0.0882
               59      Vir  Beta       45 (A')      0.1306


 EOMEE transition 3/A"
 Total energy = -413.72977710 a.u.  Excitation energy = 6.5025 eV.
 R0^2 = 0.0000  R1^2 = 0.9177  R2^2 = 0.0823  Res^2 = 4.65e-06
 Conv-d = yes

 Amplitude    Transitions between orbitals
 -0.3501       23 (A') A                 ->    15 (A") A                  
 -0.3501       23 (A') B                 ->    15 (A") B                  
 -0.3178       24 (A') A                 ->    15 (A") A                  
 -0.3178       24 (A') B                 ->    15 (A") B                  
 -0.1820       23 (A') A                 ->    18 (A") A                  
 -0.1820       23 (A') B                 ->    18 (A") B                  
 -0.1691       23 (A') A                 ->    11 (A") A                  
 -0.1691       23 (A') B                 ->    11 (A") B                  
 -0.1456       23 (A') A                 ->    14 (A") A                  
 -0.1456       23 (A') B                 ->    14 (A") B                  
 -0.1439       24 (A') A                 ->    14 (A") A                  
 -0.1439       24 (A') B                 ->    14 (A") B                  
 -0.1282       24 (A') A                 ->    18 (A") A                  
 -0.1282       24 (A') B                 ->    18 (A") B                  
  0.1243       23 (A') A                 ->    10 (A") A                  
  0.1243       23 (A') B                 ->    10 (A") B                  
 -0.1189       24 (A') A                 ->    11 (A") A                  
 -0.1189       24 (A') B                 ->    11 (A") B                  
  0.1147       23 (A') A                 ->    21 (A") A                  
  0.1147       23 (A') B                 ->    21 (A") B                  

              Summary of significant orbitals:

               Number  Type             Irrep      Energy
               26      Occ  Alpha      23 (A')     -0.4866
               27      Occ  Alpha      24 (A')     -0.4518
               26      Occ  Beta       23 (A')     -0.4866
               27      Occ  Beta       24 (A')     -0.4518
               46      Vir  Alpha      10 (A")      0.0716
               48      Vir  Alpha      11 (A")      0.0787
               55      Vir  Alpha      14 (A")      0.1156
               63      Vir  Alpha      15 (A")      0.1553
               71      Vir  Alpha      18 (A")      0.2103
               83      Vir  Alpha      21 (A")      0.2958
               46      Vir  Beta       10 (A")      0.0716
               48      Vir  Beta       11 (A")      0.0787
               55      Vir  Beta       14 (A")      0.1156
               63      Vir  Beta       15 (A")      0.1553
               71      Vir  Beta       18 (A")      0.2103
               83      Vir  Beta       21 (A")      0.2958


Running a double precision version
      EOM-CCSD/MP2 left amplitudes will be solved using Davidson.
        Amplitudes will be solved using MOM  algorithm.
     Hard-coded thresholds: 
     LinDepThresh=1.00e-15  NormThresh=1.00e-06  ReorthogonThresh=1.00e-02

      Roots     MaxVec    MaxIter   Precond   Conv      Shift    
      3         120       60        1         1.00e-05  0.00e+00  
 ------------------------------------------------------------------------------
      Iter ConvRoots NVecs ResNorm Current eigenvalues (eV)
 ------------------------------------------------------------------------------
      0    0      3     1.25e-02   5.1434   6.0306   6.5025   
      1    0      6     1.59e+01   5.1434   6.0305   6.5025   
      2    0      9     2.67e-02   5.1434   6.0306   6.5025   
      3    0      12    1.07e-02   5.1434   6.0306   6.5025   
      4    0      15    5.12e-04   5.1434   6.0306   6.5025   
      5    0      18    8.18e-05   5.1434   6.0306   6.5025   
      6    0      21    2.65e-05   5.1434   6.0306   6.5025   
      7    2      24    8.99e-06   5.1434*  6.0306*  6.5025   
      8    3      25    5.73e-06   5.1434*  6.0306*  6.5025*  

     Davidson procedure converged

 EOMEE-CCSD calculation:   CPU 24825.78 s  wall 29336.23 s

        Solving for CVS-EOMIP-CCSD A' transitions.

Running a double precision version
      CVS-EOMIP-CCSD/MP2 right amplitudes will be solved using Davidson.
        Amplitudes will be solved using shifted  algorithm.
     Hard-coded thresholds: 
     LinDepThresh=1.00e-15  NormThresh=1.00e-06  ReorthogonThresh=1.00e-02

      Roots     MaxVec    MaxIter   Precond   Conv      Shift    
      2         120       60        1         1.00e-05  1.45e+01  
 ------------------------------------------------------------------------------
      Iter ConvRoots NVecs ResNorm Current eigenvalues (eV)
 ------------------------------------------------------------------------------
      0    0      2     1.43e+00   425.0455   425.5170   
      1    0      4     3.54e+00   421.8142   422.2867   
      2    0      6     5.77e-02   408.0588   408.5780   
      3    0      8     2.64e-03   407.5884   408.0672   
      4    0      10    1.22e-04   407.5804   408.0590   
      5    1      12    9.56e-06   407.5787*  408.0568   
      6    2      13    4.27e-06   407.5787*  408.0570*  

     Davidson procedure converged

 EOMIP transition 1/A'
 Total energy = -398.99049977 a.u.  Excitation energy = 407.5787 eV.
 R1^2 = 0.8997  R2_CCVV^2 = 0.0013  R2_COVV^2 = 0.0996  Res^2 = 8.23e-06
 Conv-d = yes

 Amplitude    Transitions between orbitals
 -0.9485       4 (A') A                  ->    infty        
 -0.0004       3 (A') A                  ->    infty        

              Summary of significant orbitals:

               Number  Type             Irrep      Energy
               3       Occ  Alpha       3 (A')    -15.6493
               4       Occ  Alpha       4 (A')    -15.6317


 EOMIP transition 2/A'
 Total energy = -398.97292139 a.u.  Excitation energy = 408.0570 eV.
 R1^2 = 0.8998  R2_CCVV^2 = 0.0013  R2_COVV^2 = 0.0995  Res^2 = 3.01e-07
 Conv-d = yes

 Amplitude    Transitions between orbitals
 -0.9486       3 (A') A                  ->    infty        
  0.0004       4 (A') A                  ->    infty        

              Summary of significant orbitals:

               Number  Type             Irrep      Energy
               3       Occ  Alpha       3 (A')    -15.6493
               4       Occ  Alpha       4 (A')    -15.6317


Running a double precision version
      CVS-EOMIP-CCSD/MP2 left amplitudes will be solved using Davidson.
        Amplitudes will be solved using MOM  algorithm.
     Hard-coded thresholds: 
     LinDepThresh=1.00e-15  NormThresh=1.00e-06  ReorthogonThresh=1.00e-02

      Roots     MaxVec    MaxIter   Precond   Conv      Shift    
      2         120       60        1         1.00e-05  1.45e+01  
 ------------------------------------------------------------------------------
      Iter ConvRoots NVecs ResNorm Current eigenvalues (eV)
 ------------------------------------------------------------------------------
      0    0      2     3.43e-02   408.8632   409.3530   
      1    0      4     1.29e+00   407.6118   408.0402   
      2    0      6     1.16e-02   407.5758   408.0604   
      3    0      8     3.22e-04   407.5813   408.0584   
      4    2      10    2.78e-06   407.5787*  408.0568*  

     Davidson procedure converged

 CVS-EOMIP-CCSD calculation:   CPU 26.83 s  wall 16.17 s


 Reference -- EOM-IP-CCSD state  1/A'   transition
 Energy difference = 407.5787 eV.

 Left Dyson orbital norm is 0.927305

Left alpha Dyson orbital in the MO basis (canonical Q-Chem's ordering):
0     2.0108e-06
1     2.0442e-06
2     -4.5917e-04
3     -1.0000e+00
4     -2.0135e-16
5     -1.8738e-16
6     7.2963e-17
7     -3.1697e-16
8     -1.6323e-16
9     -4.2195e-17
10    -2.9738e-16
11    -2.6114e-16
12    3.7107e-17
13    2.8852e-16
14    2.3941e-16
15    -6.7843e-17
16    -5.3487e-17
17    3.4930e-16
18    1.4025e-16
19    2.1760e-16
20    6.8323e-17
21    6.7085e-18
22    -7.5883e-17
23    1.8586e-17
24    5.6524e-17
25    -1.1790e-16
26    7.2927e-17
27    -3.4437e-16
28    -7.1645e-17
29    -8.3777e-16
30    -2.0366e-15
31    1.4424e-15
32    -4.9153e-16
33    3.0136e-15
34    1.2104e-16
35    -1.9522e-15
36    -3.5698e-16
37    1.2872e-16
38    1.5644e-15
39    3.5008e-15
40    -3.3747e-16
41    -1.7727e-15
42    -2.5471e-15
43    -3.5662e-15
44    4.8809e-15
45    -2.6519e-15
46    -2.4588e-15
47    -3.4060e-16
48    1.2470e-15
49    1.2105e-15
50    -8.4652e-16
51    1.7455e-14
52    -2.4744e-15
53    4.2824e-16
54    -8.5240e-16
55    9.7395e-16
56    7.8108e-16
57    -3.2638e-15
58    -9.8210e-16
59    -1.4973e-14
60    -1.1099e-15
61    -1.2555e-15
62    9.9630e-16
63    1.2532e-15
64    3.9299e-15
65    2.6707e-16
66    6.9813e-15
67    -3.3140e-15
68    -5.3682e-15
69    1.1753e-15
70    -1.7298e-15
71    -8.3431e-15
72    -9.2929e-15
73    -6.4860e-15
74    2.3778e-16
75    -6.3234e-16
76    2.7519e-16
77    -8.8197e-16
78    7.8589e-15
79    -5.6974e-17
80    -8.8892e-15
81    4.9305e-15
82    -9.1568e-16
83    -1.5334e-15
84    1.7820e-15
85    6.0658e-15
86    -5.8651e-15
87    -2.8401e-15
88    7.9545e-15
89    8.8698e-15
90    -8.4160e-15
91    1.4437e-15
92    -1.0130e-15
93    8.2600e-16
94    -1.2282e-14
95    4.0654e-16
96    3.0859e-15
97    1.1756e-14
98    4.0788e-15
99    -2.5371e-15
100   -2.0939e-15
101   5.2872e-15
102   -5.1544e-15
103   -2.3352e-15
104   5.0849e-16
105   -2.9186e-15
106   -1.6008e-15
107   2.2179e-15
108   3.9724e-15
109   -4.8711e-15
110   -6.5325e-16
111   3.9762e-15
112   1.1846e-16
113   -1.8659e-15
114   7.9327e-16
115   3.3005e-16
116   2.9382e-16
117   -3.5818e-15
118   7.8507e-15
119   6.7044e-15
120   5.1547e-15
121   5.2454e-15
122   1.0258e-15
123   -1.5721e-15
124   -7.3656e-16
125   -5.2221e-15
126   -6.9705e-16
127   -3.8932e-15
128   -1.1134e-16
129   1.3360e-15
130   -2.1731e-16
131   -5.0299e-15
132   -2.4198e-16
133   8.0363e-17
134   -5.2430e-15
135   3.5897e-15
136   2.4934e-16
137   -1.2380e-15
138   9.9816e-17
139   3.5082e-16
140   -6.6554e-16
141   -4.7552e-16
142   3.6151e-15
143   -1.0184e-15
144   3.6619e-17
145   8.9383e-17
146   1.4400e-15
147   2.3177e-15
148   6.0397e-15
149   4.8040e-15
150   5.0360e-15
151   5.6152e-16
152   1.5148e-15
153   -3.6015e-16
154   7.5009e-16
155   -2.8384e-16
156   1.8255e-16
157   -5.4029e-16
158   -1.1131e-15
159   -1.7491e-15
160   -3.4799e-17
161   -4.4233e-16
162   -2.8171e-15
163   -5.5277e-15
164   -3.7301e-15
165   1.3959e-16
166   7.1902e-16
167   -2.9301e-16
168   -5.5966e-16
169   4.2106e-16
170   -8.6009e-17
171   3.6142e-16
172   -1.4053e-15
173   2.0608e-16
174   9.7594e-16
175   -2.0628e-16
176   3.7806e-16
177   -2.7500e-16
178   -1.2840e-15
179   -2.2804e-16
180   2.6391e-15
181   4.7721e-15
182   1.1070e-15
183   -3.5118e-15
184   9.1120e-16
185   1.4261e-16
186   -5.5372e-16
187   -6.4524e-17
188   1.6453e-15
189   6.4644e-16
190   1.7439e-16
191   3.1077e-18
192   -2.0034e-15
193   4.2492e-16
194   4.8216e-17
195   -2.9859e-15
196   2.7366e-17
197   2.2029e-15
198   6.3563e-16
199   -5.7178e-16
200   3.5316e-16
201   1.9807e-16
202   1.4777e-15
203   -8.7617e-16
204   2.2986e-15
205   -6.0617e-17
206   -2.3501e-15
207   -1.5547e-15
208   2.7067e-15
209   -6.3301e-16
210   1.8553e-15
211   7.9582e-16
212   7.2580e-17
213   5.0710e-16
214   2.1639e-15
215   -2.1574e-16
216   -1.0856e-15
217   1.1836e-15
218   -5.9457e-18
219   -1.6649e-15
220   -6.8592e-16
221   -1.6347e-16
222   -1.2005e-16
223   4.0982e-16
224   -6.0844e-16
225   -8.4652e-17
226   3.0096e-15
227   9.6736e-16
228   1.1177e-15
229   -5.6478e-16
230   -1.8319e-15
231   2.2905e-15
232   -1.9257e-15
233   -8.1561e-16
234   7.8202e-16
235   9.7549e-16
236   -1.6041e-15
237   1.5984e-15
238   5.3968e-16
239   2.3967e-15
240   6.7638e-16
241   -6.5569e-16
242   6.1293e-16
243   -1.7739e-15
244   1.8254e-15
245   8.2416e-16
246   2.2449e-16
247   3.8227e-16
248   4.3889e-16
249   -4.5244e-17
250   2.5686e-16
251   -9.9902e-16
252   1.4157e-15
253   2.6476e-16
254   2.2909e-16
255   -1.5641e-16
256   3.0003e-16
257   3.3197e-16
258   -2.9682e-16
259   9.7840e-17
260   -1.1558e-16
261   -2.2554e-16
262   -1.9920e-16
263   -2.8283e-17
264   -2.8471e-16
265   -4.7098e-16
266   6.1457e-16
267   1.4668e-16
268   4.1279e-16
269   1.4878e-17
270   5.4528e-16
271   -2.2771e-16
272   -5.3488e-16
273   -3.0965e-16

Decomposition over AOs for the left alpha Dyson orbital:
-1.02078793e-09
1.26610040e-08
-8.53525375e-08
2.92017315e-07
-4.35225658e-06
-1.99370874e-05
1.13533750e-05
-8.19031613e-07
-7.68349005e-06
-5.69844083e-16
3.37390953e-05
1.09471432e-05
3.58104888e-05
9.40834295e-16
2.15136100e-04
4.99603977e-05
7.52409465e-05
1.34627176e-15
8.76589969e-04
-6.24038960e-05
7.64033731e-04
1.65614515e-14
4.94669070e-05
-3.79645618e-04
2.80647517e-04
5.63196310e-14
3.44375162e-07
9.14931845e-16
-6.08836049e-06
-3.77479604e-16
3.01188883e-06
6.90159400e-06
-2.71338335e-05
-1.80948180e-04
-2.92188428e-04
-2.48909520e-06
1.87682424e-06
7.71550303e-16
3.21911772e-06
2.36985469e-06
4.71209470e-05
6.53242024e-04
-1.46634444e-06
1.80880166e-06
-3.86667501e-16
2.47048377e-04
1.01587987e-04
2.41162461e-04
3.07873844e-04
-4.21999952e-06
-1.24203673e-04
2.04625607e-15
2.24138383e-08
1.87550635e-07
7.70202560e-07
2.91434122e-06
1.94957786e-08
-5.63143444e-05
3.17002516e-06
4.62290184e-05
2.25183669e-05
2.70236359e-15
2.86761081e-04
3.09828597e-04
1.28741894e-04
2.38202831e-15
-1.71803073e-04
-5.04171789e-05
-1.90194626e-04
9.01815751e-15
-9.21648694e-04
-4.99667807e-04
1.87583211e-04
3.47295203e-14
-9.40825077e-04
-2.92209421e-05
3.64025716e-04
-8.70568350e-15
1.39481873e-04
2.54280593e-17
-1.83822797e-05
8.39008960e-16
1.45882579e-04
7.36528930e-09
7.34155216e-08
2.37550730e-07
1.27766556e-06
-1.30207910e-06
-1.40497653e-05
1.47601508e-05
-1.70275799e-05
-3.87253577e-06
1.05851985e-15
1.84974169e-05
3.83079581e-05
-9.19888686e-06
7.90172857e-16
8.85416557e-05
1.25372157e-05
1.02690897e-05
5.49579043e-15
-8.03123569e-05
2.54962501e-05
-2.26410484e-06
-8.11333580e-15
-5.86371265e-04
-4.15478856e-05
6.47123571e-05
9.51234717e-15
-2.03663769e-07
-3.35584044e-16
-4.39817571e-06
5.15892687e-16
2.34844379e-05
2.02136822e-08
1.75586671e-07
6.80561270e-07
2.83669500e-06
5.44851347e-07
-3.60114340e-05
9.32219720e-07
-4.58363190e-05
2.79182590e-05
2.31771393e-15
2.36566184e-04
-2.42238753e-04
1.22840595e-04
5.15519587e-15
-1.79210224e-04
-1.18572758e-05
-1.03294670e-04
5.97489745e-15
-1.65307257e-03
7.31567351e-04
3.01407925e-04
2.58538394e-14
1.86088217e-04
3.22167432e-04
-3.50243812e-05
4.89502771e-14
-1.17121536e-04
2.52871635e-16
-1.86678854e-06
-7.85138031e-16
1.13147075e-04
7.39897071e-09
7.21960249e-08
2.42125379e-07
1.25332410e-06
-9.83420011e-07
-1.26695784e-05
1.38737198e-05
1.67292803e-05
-3.53929066e-06
1.35377168e-15
1.53482147e-05
-3.52637666e-05
-1.20987395e-05
2.71858519e-15
8.16911943e-05
1.93684781e-06
-5.41264122e-06
3.14146401e-15
-6.17398302e-05
-4.77834033e-05
-1.01681270e-05
1.75630403e-15
-5.81383053e-04
3.67946133e-05
2.20804209e-05
-3.65039675e-15
2.92011339e-06
-1.39806744e-16
-5.73454654e-06
-6.57928301e-16
1.78219790e-05
1.09716618e-03
8.35381293e-03
4.09316958e-02
1.38936268e-01
3.35921620e-01
1.44117182e-01
4.67440214e-01
-1.69198849e-04
-1.49582898e-04
2.89317727e-15
4.32141022e-03
1.13014965e-04
4.22901263e-05
3.14358037e-15
-4.07166031e-04
-8.35730467e-05
-1.91104044e-05
8.21742999e-15
2.26159742e-03
-3.70465404e-06
-8.23414939e-04
-1.45950746e-14
1.85512059e-03
1.36746412e-04
-4.83877204e-04
-2.76406895e-14
-1.56973802e-05
-4.09380304e-16
5.29106191e-05
-5.03545924e-16
-2.24377266e-06
1.18425911e-06
9.06453259e-06
4.40747594e-05
1.50932048e-04
3.53428841e-04
1.15383170e-04
5.32118430e-04
-3.71540566e-06
-2.09294035e-05
1.67577371e-16
7.05948628e-05
6.96801236e-06
7.03920879e-05
2.45262614e-15
-1.08785596e-04
-9.44249573e-05
-1.19258297e-04
9.08936498e-16
-5.30854975e-04
-3.61839098e-04
-2.15928302e-04
-1.18930291e-14
-5.72476107e-04
-4.07392923e-04
1.79942461e-04
-3.31095629e-14
7.95328713e-06
4.73143134e-16
-6.00051530e-06
-2.16460664e-16
-2.54095123e-05
-6.00905067e-10
3.74760090e-08
-1.15726449e-07
8.02982873e-07
-8.39245530e-06
-3.89294848e-05
2.43986820e-05
1.38422953e-06
-1.77344478e-05
5.03279176e-16
7.48241309e-05
2.47308848e-06
7.70505612e-05
2.92759404e-15
-2.73947881e-04
1.84363659e-04
-1.11258272e-04
-6.69677822e-16
2.76404643e-04
3.20496713e-05
-9.29978675e-05
-9.66359331e-15
3.73517937e-04
-2.72988233e-04
-4.98196314e-04
-7.03273824e-14
-8.52073962e-06
4.39403558e-16
-1.14266594e-06
-2.62331926e-17
-3.71521012e-05
7.36674093e-06
-1.50410379e-05
-1.06660510e-04
-9.09412041e-05
-2.10348376e-06
5.33944395e-06
4.55509424e-16
   *****

 Right Dyson orbital norm is 0.949325

Right alpha Dyson orbital in the MO basis (canonical Q-Chem's ordering):
0     1.8898e-06
1     1.9508e-06
2     -4.6061e-04
3     -1.0000e+00
4     -2.0141e-16
5     -1.8739e-16
6     7.2876e-17
7     -3.1700e-16
8     -1.6597e-16
9     -4.4769e-17
10    -2.9640e-16
11    -2.6232e-16
12    3.7211e-17
13    2.8721e-16
14    2.4012e-16
15    -6.6631e-17
16    -5.3421e-17
17    3.4917e-16
18    1.4025e-16
19    2.1761e-16
20    6.8542e-17
21    6.3325e-18
22    -7.5989e-17
23    1.8586e-17
24    5.6524e-17
25    -1.1657e-16
26    7.3083e-17
27    -3.4437e-16
28    -7.1645e-17
29    -8.3725e-16
30    -2.0367e-15
31    1.4424e-15
32    -4.9105e-16
33    3.0135e-15
34    1.2094e-16
35    -1.9524e-15
36    -3.5699e-16
37    1.2872e-16
38    1.5645e-15
39    3.5011e-15
40    -3.3737e-16
41    -1.7726e-15
42    -2.5471e-15
43    -3.5656e-15
44    4.8812e-15
45    -2.6519e-15
46    -2.4589e-15
47    -3.4060e-16
48    1.2470e-15
49    1.2105e-15
50    -8.4651e-16
51    1.7455e-14
52    -2.4744e-15
53    4.2825e-16
54    -8.5240e-16
55    9.7396e-16
56    7.8121e-16
57    -3.2634e-15
58    -9.8174e-16
59    -1.4973e-14
60    -1.1102e-15
61    -1.2556e-15
62    9.9630e-16
63    1.2530e-15
64    3.9288e-15
65    2.6707e-16
66    6.9813e-15
67    -3.3140e-15
68    -5.3686e-15
69    1.1751e-15
70    -1.7298e-15
71    -8.3431e-15
72    -9.2930e-15
73    -6.4859e-15
74    2.3778e-16
75    -6.3235e-16
76    2.7524e-16
77    -8.8220e-16
78    7.8591e-15
79    -5.6976e-17
80    -8.8891e-15
81    4.9306e-15
82    -9.1568e-16
83    -1.5334e-15
84    1.7820e-15
85    6.0680e-15
86    -5.8653e-15
87    -2.8386e-15
88    7.9545e-15
89    8.8707e-15
90    -8.4198e-15
91    1.4437e-15
92    -1.0129e-15
93    8.2601e-16
94    -1.2282e-14
95    4.0650e-16
96    3.0847e-15
97    1.1756e-14
98    4.0797e-15
99    -2.5378e-15
100   -2.0936e-15
101   5.2871e-15
102   -5.1544e-15
103   -2.3360e-15
104   5.0888e-16
105   -2.9185e-15
106   -1.6007e-15
107   2.2160e-15
108   3.9723e-15
109   -4.8709e-15
110   -6.5326e-16
111   3.9764e-15
112   1.1846e-16
113   -1.8666e-15
114   7.9327e-16
115   3.3005e-16
116   2.9591e-16
117   -3.5818e-15
118   7.8510e-15
119   6.7044e-15
120   5.1549e-15
121   5.2449e-15
122   1.0259e-15
123   -1.5725e-15
124   -7.3588e-16
125   -5.2218e-15
126   -6.9705e-16
127   -3.8933e-15
128   -1.1134e-16
129   1.3347e-15
130   -2.1769e-16
131   -5.0298e-15
132   -2.4198e-16
133   8.0363e-17
134   -5.2425e-15
135   3.5891e-15
136   2.4867e-16
137   -1.2383e-15
138   9.9817e-17
139   3.5082e-16
140   -6.6554e-16
141   -4.7552e-16
142   3.6150e-15
143   -1.0236e-15
144   3.6619e-17
145   8.9384e-17
146   1.4387e-15
147   2.3174e-15
148   6.0396e-15
149   4.8032e-15
150   5.0364e-15
151   5.6021e-16
152   1.5148e-15
153   -3.6015e-16
154   7.4987e-16
155   -2.8384e-16
156   1.8259e-16
157   -5.4029e-16
158   -1.1131e-15
159   -1.7490e-15
160   -3.4799e-17
161   -4.4353e-16
162   -2.8165e-15
163   -5.5309e-15
164   -3.7294e-15
165   1.3810e-16
166   7.1902e-16
167   -2.9335e-16
168   -5.6037e-16
169   4.2093e-16
170   -8.6009e-17
171   3.6136e-16
172   -1.4065e-15
173   2.0608e-16
174   9.7642e-16
175   -2.0628e-16
176   3.7835e-16
177   -2.7500e-16
178   -1.2840e-15
179   -2.2804e-16
180   2.6387e-15
181   4.7726e-15
182   1.1080e-15
183   -3.5126e-15
184   9.1127e-16
185   1.4257e-16
186   -5.5373e-16
187   -6.4524e-17
188   1.6453e-15
189   6.4644e-16
190   1.7440e-16
191   3.1076e-18
192   -2.0026e-15
193   4.2499e-16
194   4.8216e-17
195   -2.9859e-15
196   2.7365e-17
197   2.2039e-15
198   6.3425e-16
199   -5.7175e-16
200   3.5316e-16
201   1.9807e-16
202   1.4769e-15
203   -8.7527e-16
204   2.2975e-15
205   -6.1457e-17
206   -2.3503e-15
207   -1.5549e-15
208   2.7051e-15
209   -6.3288e-16
210   1.8552e-15
211   7.9582e-16
212   7.2580e-17
213   5.0687e-16
214   2.1639e-15
215   -2.1643e-16
216   -1.0857e-15
217   1.1839e-15
218   -5.7863e-18
219   -1.6646e-15
220   -6.8632e-16
221   -1.6347e-16
222   -1.2005e-16
223   4.0948e-16
224   -6.0843e-16
225   -8.4701e-17
226   3.0094e-15
227   9.6815e-16
228   1.1173e-15
229   -5.6473e-16
230   -1.8304e-15
231   2.2903e-15
232   -1.9250e-15
233   -8.1557e-16
234   7.8197e-16
235   9.7545e-16
236   -1.6041e-15
237   1.5983e-15
238   5.3965e-16
239   2.3866e-15
240   6.7610e-16
241   -6.5568e-16
242   6.1292e-16
243   -1.7739e-15
244   1.8254e-15
245   8.2416e-16
246   2.2412e-16
247   3.6476e-16
248   4.3891e-16
249   -4.5242e-17
250   2.5686e-16
251   -9.9902e-16
252   1.4157e-15
253   2.6476e-16
254   2.3041e-16
255   -1.5728e-16
256   3.0003e-16
257   3.3197e-16
258   -2.9682e-16
259   9.7842e-17
260   -1.1558e-16
261   -2.2554e-16
262   -1.9890e-16
263   -2.9591e-17
264   -2.8471e-16
265   -4.7098e-16
266   6.1456e-16
267   1.4668e-16
268   4.1279e-16
269   1.4878e-17
270   5.4525e-16
271   -2.2770e-16
272   -5.3488e-16
273   -3.0965e-16

Decomposition over AOs for the right alpha Dyson orbital:
-1.02075061e-09
1.26612767e-08
-8.53511472e-08
2.92021396e-07
-4.35224889e-06
-1.99371396e-05
1.13533666e-05
-8.19093852e-07
-7.68344751e-06
-5.69842539e-16
3.37394257e-05
1.09466721e-05
3.58107583e-05
9.40838376e-16
2.15135831e-04
4.99606350e-05
7.52410144e-05
1.34627404e-15
8.76587298e-04
-6.24040574e-05
7.64032196e-04
1.65614750e-14
4.94671222e-05
-3.79645397e-04
2.80646973e-04
5.63197625e-14
3.44089760e-07
9.14931065e-16
-6.08837291e-06
-3.77478617e-16
3.01200521e-06
6.90195118e-06
-2.71337215e-05
-1.80947713e-04
-2.92187876e-04
-2.48893530e-06
1.87689074e-06
7.71550108e-16
3.21913243e-06
2.37005035e-06
4.71207626e-05
6.53240938e-04
-1.46636796e-06
1.80888846e-06
-3.86666006e-16
2.47048381e-04
1.01587974e-04
2.41162167e-04
3.07873324e-04
-4.22000267e-06
-1.24203673e-04
2.04625375e-15
2.24138710e-08
1.87550903e-07
7.70203704e-07
2.91434551e-06
1.94999460e-08
-5.63143868e-05
3.17002162e-06
4.62290235e-05
2.25182827e-05
2.70236012e-15
2.86761406e-04
3.09828675e-04
1.28741425e-04
2.38201713e-15
-1.71803243e-04
-5.04170114e-05
-1.90194521e-04
9.01815420e-15
-9.21649362e-04
-4.99668524e-04
1.87583831e-04
3.47295565e-14
-9.40826457e-04
-2.92214039e-05
3.64025503e-04
-8.70573136e-15
1.39481855e-04
2.54268608e-17
-1.83822815e-05
8.39009696e-16
1.45882306e-04
7.23890728e-09
7.24541401e-08
2.32836638e-07
1.26162265e-06
-1.34179136e-06
-1.40686135e-05
1.47031052e-05
-1.70277785e-05
-3.87239375e-06
1.05851763e-15
1.84968376e-05
3.83080808e-05
-9.19898023e-06
7.90165374e-16
8.85418763e-05
1.25371873e-05
1.02690994e-05
5.49578988e-15
-8.03127425e-05
2.54962579e-05
-2.26412978e-06
-8.11336439e-15
-5.86372943e-04
-4.15481510e-05
6.47124653e-05
9.51237700e-15
-2.03699898e-07
-3.35583576e-16
-4.39817421e-06
5.15891664e-16
2.34844272e-05
2.02136821e-08
1.75586692e-07
6.80561221e-07
2.83669553e-06
5.44848210e-07
-3.60114412e-05
9.32231230e-07
-4.58363142e-05
2.79182661e-05
2.31771311e-15
2.36566164e-04
-2.42238823e-04
1.22840520e-04
5.15519401e-15
-1.79209755e-04
-1.18572447e-05
-1.03294620e-04
5.97489809e-15
-1.65307046e-03
7.31566765e-04
3.01407756e-04
2.58538607e-14
1.86088186e-04
3.22166767e-04
-3.50241564e-05
4.89503984e-14
-1.17121563e-04
2.52870286e-16
-1.86679207e-06
-7.85137361e-16
1.13147056e-04
7.30150048e-09
7.14545659e-08
2.38489722e-07
1.24095112e-06
-1.01404562e-06
-1.26841063e-05
1.38297168e-05
1.67294273e-05
-3.53920204e-06
1.35377096e-15
1.53477714e-05
-3.52638429e-05
-1.20987868e-05
2.71858470e-15
8.16912134e-05
1.93690769e-06
-5.41260139e-06
3.14146275e-15
-6.17403252e-05
-4.77832623e-05
-1.01680693e-05
1.75629943e-15
-5.81383050e-04
3.67947188e-05
2.20805270e-05
-3.65039666e-15
2.92012372e-06
-1.39806682e-16
-5.73453567e-06
-6.57927691e-16
1.78219843e-05
1.09716618e-03
8.35381292e-03
4.09316957e-02
1.38936268e-01
3.35921620e-01
1.44117182e-01
4.67440213e-01
-1.69198827e-04
-1.49582878e-04
2.89317451e-15
4.32141028e-03
1.13014893e-04
4.22900706e-05
3.14357512e-15
-4.07166141e-04
-8.35730194e-05
-1.91102481e-05
8.21742325e-15
2.26159656e-03
-3.70457578e-06
-8.23414249e-04
-1.45950997e-14
1.85512021e-03
1.36745802e-04
-4.83876828e-04
-2.76407319e-14
-1.56973482e-05
-4.09380132e-16
5.29106085e-05
-5.03545009e-16
-2.24376858e-06
1.18584607e-06
9.07661568e-06
4.41339636e-05
1.51133010e-04
3.53914727e-04
1.15591671e-04
5.32794510e-04
-3.71514576e-06
-2.09294010e-05
1.67577109e-16
7.06011188e-05
6.96788615e-06
7.03921372e-05
2.45262233e-15
-1.08786238e-04
-9.44249520e-05
-1.19258347e-04
9.08938891e-16
-5.30851653e-04
-3.61837796e-04
-2.15927614e-04
-1.18930594e-14
-5.72473509e-04
-4.07392325e-04
1.79942868e-04
-3.31096007e-14
7.95330666e-06
4.73141856e-16
-6.00042374e-06
-2.16460193e-16
-2.54095058e-05
-6.00908742e-10
3.74760534e-08
-1.15726752e-07
8.02983895e-07
-8.39247095e-06
-3.89295586e-05
2.43987234e-05
1.38425642e-06
-1.77344415e-05
5.03279681e-16
7.48242991e-05
2.47292828e-06
7.70505030e-05
2.92759993e-15
-2.73948234e-04
1.84363913e-04
-1.11258354e-04
-6.69680859e-16
2.76405839e-04
3.20494471e-05
-9.29977415e-05
-9.66359722e-15
3.73518525e-04
-2.72987685e-04
-4.98195438e-04
-7.03275420e-14
-8.52072049e-06
4.39401932e-16
-1.14268022e-06
-2.62339471e-17
-3.71520159e-05
7.36674620e-06
-1.50410541e-05
-1.06660620e-04
-9.09410867e-05
-2.10349325e-06
[...]
184   0.0000e+00
185   0.0000e+00
186   0.0000e+00
187   0.0000e+00
188   0.0000e+00
189   0.0000e+00
190   0.0000e+00
191   0.0000e+00
192   0.0000e+00
193   0.0000e+00
194   0.0000e+00
195   0.0000e+00
196   0.0000e+00
197   0.0000e+00
198   0.0000e+00
199   0.0000e+00
200   0.0000e+00
201   0.0000e+00
202   0.0000e+00
203   0.0000e+00
204   0.0000e+00
205   0.0000e+00
206   0.0000e+00
207   0.0000e+00
208   0.0000e+00
209   0.0000e+00
210   0.0000e+00
211   0.0000e+00
212   0.0000e+00
213   0.0000e+00
214   0.0000e+00
215   0.0000e+00
216   0.0000e+00
217   0.0000e+00
218   0.0000e+00
219   0.0000e+00
220   0.0000e+00
221   0.0000e+00
222   0.0000e+00
223   0.0000e+00
224   0.0000e+00
225   0.0000e+00
226   0.0000e+00
227   0.0000e+00
228   0.0000e+00
229   0.0000e+00
230   0.0000e+00
231   0.0000e+00
232   0.0000e+00
233   0.0000e+00
234   0.0000e+00
235   0.0000e+00
236   0.0000e+00
237   0.0000e+00
238   0.0000e+00
239   0.0000e+00
240   0.0000e+00
241   0.0000e+00
242   0.0000e+00
243   0.0000e+00
244   0.0000e+00
245   0.0000e+00
246   0.0000e+00
247   0.0000e+00
248   0.0000e+00
249   0.0000e+00
250   0.0000e+00
251   0.0000e+00
252   0.0000e+00
253   0.0000e+00
254   0.0000e+00
255   0.0000e+00
256   0.0000e+00
257   0.0000e+00
258   0.0000e+00
259   0.0000e+00
260   0.0000e+00
261   0.0000e+00
262   0.0000e+00
263   0.0000e+00
264   0.0000e+00
265   0.0000e+00
266   0.0000e+00
267   0.0000e+00
268   0.0000e+00
269   0.0000e+00
270   0.0000e+00
271   0.0000e+00
272   0.0000e+00
273   0.0000e+00

Decomposition over AOs for the right alpha Dyson orbital:
0.00000000e+00
0.00000000e+00
0.00000000e+00
0.00000000e+00
0.00000000e+00
0.00000000e+00
0.00000000e+00
0.00000000e+00
0.00000000e+00
0.00000000e+00
0.00000000e+00
0.00000000e+00
0.00000000e+00
0.00000000e+00
0.00000000e+00
0.00000000e+00
0.00000000e+00
0.00000000e+00
0.00000000e+00
0.00000000e+00
0.00000000e+00
0.00000000e+00
0.00000000e+00
0.00000000e+00
0.00000000e+00
0.00000000e+00
0.00000000e+00
0.00000000e+00
0.00000000e+00
0.00000000e+00
0.00000000e+00
0.00000000e+00
0.00000000e+00
0.00000000e+00
0.00000000e+00
0.00000000e+00
0.00000000e+00
0.00000000e+00
0.00000000e+00
0.00000000e+00
0.00000000e+00
0.00000000e+00
0.00000000e+00
0.00000000e+00
0.00000000e+00
0.00000000e+00
0.00000000e+00
0.00000000e+00
0.00000000e+00
0.00000000e+00
0.00000000e+00
0.00000000e+00
0.00000000e+00
0.00000000e+00
0.00000000e+00
0.00000000e+00
0.00000000e+00
0.00000000e+00
0.00000000e+00
0.00000000e+00
0.00000000e+00
0.00000000e+00
0.00000000e+00
0.00000000e+00
0.00000000e+00
0.00000000e+00
0.00000000e+00
0.00000000e+00
0.00000000e+00
0.00000000e+00
0.00000000e+00
0.00000000e+00
0.00000000e+00
0.00000000e+00
0.00000000e+00
0.00000000e+00
0.00000000e+00
0.00000000e+00
0.00000000e+00
0.00000000e+00
0.00000000e+00
0.00000000e+00
0.00000000e+00
0.00000000e+00
0.00000000e+00
0.00000000e+00
0.00000000e+00
0.00000000e+00
0.00000000e+00
0.00000000e+00
0.00000000e+00
0.00000000e+00
0.00000000e+00
0.00000000e+00
0.00000000e+00
0.00000000e+00
0.00000000e+00
0.00000000e+00
0.00000000e+00
0.00000000e+00
0.00000000e+00
0.00000000e+00
0.00000000e+00
0.00000000e+00
0.00000000e+00
0.00000000e+00
0.00000000e+00
0.00000000e+00
0.00000000e+00
0.00000000e+00
0.00000000e+00
0.00000000e+00
0.00000000e+00
0.00000000e+00
0.00000000e+00
0.00000000e+00
0.00000000e+00
0.00000000e+00
0.00000000e+00
0.00000000e+00
0.00000000e+00
0.00000000e+00
0.00000000e+00
0.00000000e+00
0.00000000e+00
0.00000000e+00
0.00000000e+00
0.00000000e+00
0.00000000e+00
0.00000000e+00
0.00000000e+00
0.00000000e+00
0.00000000e+00
0.00000000e+00
0.00000000e+00
0.00000000e+00
0.00000000e+00
0.00000000e+00
0.00000000e+00
0.00000000e+00
0.00000000e+00
0.00000000e+00
0.00000000e+00
0.00000000e+00
0.00000000e+00
0.00000000e+00
0.00000000e+00
0.00000000e+00
0.00000000e+00
0.00000000e+00
0.00000000e+00
0.00000000e+00
0.00000000e+00
0.00000000e+00
0.00000000e+00
0.00000000e+00
0.00000000e+00
0.00000000e+00
0.00000000e+00
0.00000000e+00
0.00000000e+00
0.00000000e+00
0.00000000e+00
0.00000000e+00
0.00000000e+00
0.00000000e+00
0.00000000e+00
0.00000000e+00
0.00000000e+00
0.00000000e+00
0.00000000e+00
0.00000000e+00
0.00000000e+00
0.00000000e+00
0.00000000e+00
0.00000000e+00
0.00000000e+00
0.00000000e+00
0.00000000e+00
0.00000000e+00
0.00000000e+00
0.00000000e+00
0.00000000e+00
0.00000000e+00
0.00000000e+00
0.00000000e+00
0.00000000e+00
0.00000000e+00
0.00000000e+00
0.00000000e+00
0.00000000e+00
0.00000000e+00
0.00000000e+00
0.00000000e+00
0.00000000e+00
0.00000000e+00
0.00000000e+00
0.00000000e+00
0.00000000e+00
0.00000000e+00
0.00000000e+00
0.00000000e+00
0.00000000e+00
0.00000000e+00
0.00000000e+00
0.00000000e+00
0.00000000e+00
0.00000000e+00
0.00000000e+00
0.00000000e+00
0.00000000e+00
0.00000000e+00
0.00000000e+00
0.00000000e+00
0.00000000e+00
0.00000000e+00
0.00000000e+00
0.00000000e+00
0.00000000e+00
0.00000000e+00
0.00000000e+00
0.00000000e+00
0.00000000e+00
0.00000000e+00
0.00000000e+00
0.00000000e+00
0.00000000e+00
0.00000000e+00
0.00000000e+00
0.00000000e+00
0.00000000e+00
0.00000000e+00
0.00000000e+00
0.00000000e+00
0.00000000e+00
0.00000000e+00
0.00000000e+00
0.00000000e+00
0.00000000e+00
0.00000000e+00
0.00000000e+00
0.00000000e+00
0.00000000e+00
0.00000000e+00
0.00000000e+00
0.00000000e+00
0.00000000e+00
0.00000000e+00
0.00000000e+00
0.00000000e+00
0.00000000e+00
0.00000000e+00
0.00000000e+00
0.00000000e+00
0.00000000e+00
0.00000000e+00
0.00000000e+00
0.00000000e+00
0.00000000e+00
0.00000000e+00
0.00000000e+00
0.00000000e+00
0.00000000e+00
0.00000000e+00
0.00000000e+00
0.00000000e+00
0.00000000e+00
0.00000000e+00
0.00000000e+00
0.00000000e+00
0.00000000e+00
0.00000000e+00
0.00000000e+00
0.00000000e+00
0.00000000e+00
0.00000000e+00
   *****

     End transition

 Dyson orbitals calculation:   CPU 0.83 s  wall 0.90 s

 Total ccman2 time:   CPU 30812.28 s  wall 31178.13 s


 --------------------------------------------------------------
             Orbital Energies (a.u.) and Symmetries
 --------------------------------------------------------------

 Alpha MOs, Restricted
 -- Occupied --                  
-20.550 -20.545 -15.649 -15.632 -11.427 -11.388 -11.346 -11.261
  1 A'    2 A'    3 A'    4 A'    5 A'    6 A'    7 A'    8 A'                 
 -1.442  -1.404  -1.318  -1.250  -1.093  -0.938  -0.906  -0.812
  9 A'   10 A'   11 A'   12 A'   13 A'   14 A'   15 A'   16 A'                 
 -0.770  -0.718  -0.681  -0.671  -0.657  -0.619  -0.605  -0.573
 17 A'   18 A'   19 A'    1 A"   20 A'   21 A'   22 A'    2 A"                 
 -0.528  -0.487  -0.452  -0.438  -0.371
  3 A"   23 A'   24 A'    4 A"    5 A"                                         
 -- Virtual --                   
  0.005   0.019   0.020   0.022   0.031   0.033   0.035   0.036
 25 A'   26 A'    6 A"   27 A'   28 A'   29 A'   30 A'    7 A"                 
  0.038   0.046   0.047   0.049   0.053   0.054   0.055   0.068
  8 A"   31 A'   32 A'   33 A'   34 A'    9 A"   35 A'   36 A'                 
  0.072   0.072   0.079   0.085   0.086   0.088   0.095   0.097
 10 A"   37 A'   11 A"   38 A'   12 A"   39 A'   40 A'   41 A'                 
  0.112   0.116   0.118   0.120   0.127   0.131   0.134   0.137
 13 A"   14 A"   42 A'   43 A'   44 A'   45 A'   46 A'   47 A'                 
  0.138   0.155   0.162   0.164   0.172   0.184   0.189   0.195
 48 A'   15 A"   49 A'   50 A'   16 A"   51 A'   17 A"   52 A'                 
  0.209   0.210   0.224   0.230   0.235   0.241   0.243   0.260
 53 A'   18 A"   54 A'   55 A'   56 A'   19 A"   57 A'   58 A'                 
  0.266   0.270   0.278   0.279   0.286   0.296   0.300   0.333
 59 A'   60 A'   20 A"   61 A'   62 A'   21 A"   63 A'   22 A"                 
  0.333   0.347   0.373   0.388   0.391   0.405   0.410   0.410
 64 A'   65 A'   66 A'   67 A'   68 A'   69 A'   23 A"   70 A'                 
  0.420   0.422   0.441   0.449   0.455   0.463   0.481   0.482
 24 A"   71 A'   72 A'   73 A'   74 A'   75 A'   76 A'   77 A'                 
  0.505   0.529   0.545   0.558   0.615   0.630   0.655   0.706
 78 A'   79 A'   80 A'   81 A'   82 A'   83 A'   84 A'   85 A'                 
  0.734   0.740   0.761   0.776   0.778   0.799   0.822   0.824
 86 A'   25 A"   87 A'   26 A"   88 A'   27 A"   28 A"   89 A'                 
  0.878   0.888   0.938   0.963   0.971   0.979   1.008   1.015
 90 A'   91 A'   92 A'   93 A'   94 A'   95 A'   96 A'   97 A'                 
  1.029   1.042   1.061   1.093   1.100   1.114   1.159   1.227
 98 A'   29 A"   99 A'   30 A"  100 A'  101 A'  102 A'   31 A"                 
  1.242   1.245   1.270   1.301   1.368   1.370   1.393   1.406
 32 A"  103 A'  104 A'  105 A'  106 A'   33 A"   34 A"   35 A"                 
  1.421   1.441   1.460   1.464   1.513   1.515   1.543   1.557
 36 A"  107 A'  108 A'   37 A"   38 A"  109 A'  110 A'  111 A'                 
  1.583   1.760   1.777   1.803   1.814   1.877   1.899   1.915
112 A'  113 A'  114 A'  115 A'   39 A"  116 A'   40 A"  117 A'                 
  1.929   1.952   1.980   2.013   2.014   2.067   2.124   2.143
 41 A"  118 A'  119 A'   42 A"  120 A'  121 A'  122 A'  123 A'                 
  2.186   2.223   2.236   2.283   2.299   2.340   2.358   2.532
124 A'   43 A"  125 A'  126 A'  127 A'   44 A"  128 A'  129 A'                 
  2.566   2.589   2.643   2.668   2.728   2.807   2.822   2.851
 45 A"  130 A'   46 A"  131 A'   47 A"  132 A'   48 A"  133 A'                 
  2.932   2.957   3.006   3.019   3.048   3.094   3.168   3.181
134 A'  135 A'  136 A'  137 A'  138 A'   49 A"   50 A"  139 A'                 
  3.184   3.211   3.263   3.271   3.297   3.310   3.325   3.347
 51 A"  140 A'   52 A"  141 A'  142 A'   53 A"  143 A'   54 A"                 
  3.401   3.515   3.588   3.756   3.766   3.819   3.840   3.876
144 A'  145 A'  146 A'   55 A"   56 A"  147 A'  148 A'  149 A'                 
  3.914   3.959   4.017   4.049   4.106   4.288   4.305   4.364
150 A'  151 A'  152 A'  153 A'  154 A'  155 A'   57 A"   58 A"                 
  4.411   4.485   4.605   5.012   5.158   5.288   5.441   5.553
156 A'  157 A'  158 A'  159 A'  160 A'  161 A'  162 A'  163 A'                 
  5.625   5.633   5.690   5.713   5.782   5.864   5.902   6.438
 59 A"   60 A"  164 A'  165 A'  166 A'  167 A'  168 A'  169 A'                 
  6.445   7.668   7.729   9.888   9.934  20.639  20.695  20.726
170 A'  171 A'  172 A'  173 A'  174 A'  175 A'  176 A'  177 A'                 
 20.897  30.195  30.235  40.894  40.935  80.190  80.235  80.273
178 A'  179 A'  180 A'  181 A'  182 A'  183 A'  184 A'  185 A'                 
 80.428 116.314 116.350 159.240 159.273 322.013 322.053 322.094
186 A'  187 A'  188 A'  189 A'  190 A'  191 A'  192 A'  193 A'                 
322.233 460.413 460.445 631.938 631.9651431.5641431.6041431.646
194 A'  195 A'  196 A'  197 A'  198 A'  199 A'  200 A'  201 A'                 
*******2012.8872012.9162759.3342759.3578749.7838749.8248749.866
202 A'  203 A'  204 A'  205 A'  206 A'  207 A'  208 A'  209 A'                 
***************************************
210 A'  211 A'  212 A'  213 A'  214 A'                                         

 Beta MOs, Restricted
 -- Occupied --                  
-20.550 -20.545 -15.649 -15.632 -11.427 -11.388 -11.346 -11.261
  1 A'    2 A'    3 A'    4 A'    5 A'    6 A'    7 A'    8 A'                 
 -1.442  -1.404  -1.318  -1.250  -1.093  -0.938  -0.906  -0.812
  9 A'   10 A'   11 A'   12 A'   13 A'   14 A'   15 A'   16 A'                 
 -0.770  -0.718  -0.681  -0.671  -0.657  -0.619  -0.605  -0.573
 17 A'   18 A'   19 A'    1 A"   20 A'   21 A'   22 A'    2 A"                 
 -0.528  -0.487  -0.452  -0.438  -0.371
  3 A"   23 A'   24 A'    4 A"    5 A"                                         
 -- Virtual --                   
  0.005   0.019   0.020   0.022   0.031   0.033   0.035   0.036
 25 A'   26 A'    6 A"   27 A'   28 A'   29 A'   30 A'    7 A"                 
  0.038   0.046   0.047   0.049   0.053   0.054   0.055   0.068
  8 A"   31 A'   32 A'   33 A'   34 A'    9 A"   35 A'   36 A'                 
  0.072   0.072   0.079   0.085   0.086   0.088   0.095   0.097
 10 A"   37 A'   11 A"   38 A'   12 A"   39 A'   40 A'   41 A'                 
  0.112   0.116   0.118   0.120   0.127   0.131   0.134   0.137
 13 A"   14 A"   42 A'   43 A'   44 A'   45 A'   46 A'   47 A'                 
  0.138   0.155   0.162   0.164   0.172   0.184   0.189   0.195
 48 A'   15 A"   49 A'   50 A'   16 A"   51 A'   17 A"   52 A'                 
  0.209   0.210   0.224   0.230   0.235   0.241   0.243   0.260
 53 A'   18 A"   54 A'   55 A'   56 A'   19 A"   57 A'   58 A'                 
  0.266   0.270   0.278   0.279   0.286   0.296   0.300   0.333
 59 A'   60 A'   20 A"   61 A'   62 A'   21 A"   63 A'   22 A"                 
  0.333   0.347   0.373   0.388   0.391   0.405   0.410   0.410
 64 A'   65 A'   66 A'   67 A'   68 A'   69 A'   23 A"   70 A'                 
  0.420   0.422   0.441   0.449   0.455   0.463   0.481   0.482
 24 A"   71 A'   72 A'   73 A'   74 A'   75 A'   76 A'   77 A'                 
  0.505   0.529   0.545   0.558   0.615   0.630   0.655   0.706
 78 A'   79 A'   80 A'   81 A'   82 A'   83 A'   84 A'   85 A'                 
  0.734   0.740   0.761   0.776   0.778   0.799   0.822   0.824
 86 A'   25 A"   87 A'   26 A"   88 A'   27 A"   28 A"   89 A'                 
  0.878   0.888   0.938   0.963   0.971   0.979   1.008   1.015
 90 A'   91 A'   92 A'   93 A'   94 A'   95 A'   96 A'   97 A'                 
  1.029   1.042   1.061   1.093   1.100   1.114   1.159   1.227
 98 A'   29 A"   99 A'   30 A"  100 A'  101 A'  102 A'   31 A"                 
  1.242   1.245   1.270   1.301   1.368   1.370   1.393   1.406
 32 A"  103 A'  104 A'  105 A'  106 A'   33 A"   34 A"   35 A"                 
  1.421   1.441   1.460   1.464   1.513   1.515   1.543   1.557
 36 A"  107 A'  108 A'   37 A"   38 A"  109 A'  110 A'  111 A'                 
  1.583   1.760   1.777   1.803   1.814   1.877   1.899   1.915
112 A'  113 A'  114 A'  115 A'   39 A"  116 A'   40 A"  117 A'                 
  1.929   1.952   1.980   2.013   2.014   2.067   2.124   2.143
 41 A"  118 A'  119 A'   42 A"  120 A'  121 A'  122 A'  123 A'                 
  2.186   2.223   2.236   2.283   2.299   2.340   2.358   2.532
124 A'   43 A"  125 A'  126 A'  127 A'   44 A"  128 A'  129 A'                 
  2.566   2.589   2.643   2.668   2.728   2.807   2.822   2.851
 45 A"  130 A'   46 A"  131 A'   47 A"  132 A'   48 A"  133 A'                 
  2.932   2.957   3.006   3.019   3.048   3.094   3.168   3.181
134 A'  135 A'  136 A'  137 A'  138 A'   49 A"   50 A"  139 A'                 
  3.184   3.211   3.263   3.271   3.297   3.310   3.325   3.347
 51 A"  140 A'   52 A"  141 A'  142 A'   53 A"  143 A'   54 A"                 
  3.401   3.515   3.588   3.756   3.766   3.819   3.840   3.876
144 A'  145 A'  146 A'   55 A"   56 A"  147 A'  148 A'  149 A'                 
  3.914   3.959   4.017   4.049   4.106   4.288   4.305   4.364
150 A'  151 A'  152 A'  153 A'  154 A'  155 A'   57 A"   58 A"                 
  4.411   4.485   4.605   5.012   5.158   5.288   5.441   5.553
156 A'  157 A'  158 A'  159 A'  160 A'  161 A'  162 A'  163 A'                 
  5.625   5.633   5.690   5.713   5.782   5.864   5.902   6.438
 59 A"   60 A"  164 A'  165 A'  166 A'  167 A'  168 A'  169 A'                 
  6.445   7.668   7.729   9.888   9.934  20.639  20.695  20.726
170 A'  171 A'  172 A'  173 A'  174 A'  175 A'  176 A'  177 A'                 
 20.897  30.195  30.235  40.894  40.935  80.190  80.235  80.273
178 A'  179 A'  180 A'  181 A'  182 A'  183 A'  184 A'  185 A'                 
 80.428 116.314 116.350 159.240 159.273 322.013 322.053 322.094
186 A'  187 A'  188 A'  189 A'  190 A'  191 A'  192 A'  193 A'                 
322.233 460.413 460.445 631.938 631.9651431.5641431.6041431.646
194 A'  195 A'  196 A'  197 A'  198 A'  199 A'  200 A'  201 A'                 
*******2012.8872012.9162759.3342759.3578749.7838749.8248749.866
202 A'  203 A'  204 A'  205 A'  206 A'  207 A'  208 A'  209 A'                 
***************************************
210 A'  211 A'  212 A'  213 A'  214 A'                                         
 --------------------------------------------------------------

          Ground-State Mulliken Net Atomic Charges

     Atom                 Charge (a.u.)
  ----------------------------------------
      1 C                     0.041345
      2 H                     0.361959
      3 H                     0.163670
      4 H                     0.394985
      5 C                     0.245726
      6 O                    -0.078193
      7 C                     0.021288
      8 O                    -0.118248
      9 N                    -0.604359
     10 N                    -0.410869
     11 C                    -0.261285
     12 H                     0.243982
  ----------------------------------------
  Sum of atomic charges =     0.000000

 -----------------------------------------------------------------
                    Cartesian Multipole Moments
 -----------------------------------------------------------------
    Charge (ESU x 10^10)
                 0.0000
    Dipole Moment (Debye)
         X      -1.3839      Y      -4.9543      Z      -0.0000
       Tot       5.1439
    Quadrupole Moments (Debye-Ang)
        XX     -60.6807     XY       2.5027     YY     -38.3445
        XZ       0.0000     YZ       0.0000     ZZ     -46.9509
    Octopole Moments (Debye-Ang^2)
       XXX     -11.3708    XXY     -34.8372    XYY      -5.2065
       YYY      -9.0564    XXZ      -0.0000    XYZ       0.0000
       YYZ      -0.0000    XZZ      -1.9200    YZZ       4.3285
       ZZZ      -0.0000
    Hexadecapole Moments (Debye-Ang^3)
      XXXX    -728.3246   XXXY      12.7275   XXYY    -177.0147
      XYYY      13.2604   YYYY    -304.5155   XXXZ       0.0000
      XXYZ      -0.0000   XYYZ      -0.0000   YYYZ       0.0000
      XXZZ    -114.2361   XYZZ       2.9662   YYZZ     -75.7730
      XZZZ      -0.0000   YZZZ       0.0000   ZZZZ     -47.0015
 -----------------------------------------------------------------
Archival summary:
1\1\n-62-23-20\SP\ProcedureUnspecified\BasisUnspecified\2244\malop\ThuJun1302:52:112019ThuJun1302:52:112019\0\\#,ProcedureUnspecified,BasisUnspecified,\\0,1\N\H,1,1.01081\C,1,1.37966,2,115.327\O,3,1.21479,1,124.21,2,-0,0\N,3,1.3852,1,112.713,2,-180,0\H,5,1.00619,3,115.142,1,-180,0\C,5,1.37008,3,123.626,1,-0,0\H,7,1.07981,5,115.516,3,-180,0\C,7,1.34802,5,121.979,3,0,0\H,9,1.07615,7,121.525,5,-180,0\C,1,1.40335,2,116.035,3,-180,0\O,11,1.21832,1,120.541,2,-0,0\\HF=-412.580334\\@

 Total job time:  31243.00s(wall), 31007.33s(cpu) 
 Thu Jun 13 02:52:11 2019

======= MOLDEN-FORMATTED INPUT FILE FOLLOWS =======
[Molden Format]
[Atoms] (Angs)
  C      1    6     -0.00714236     -1.70213747     -0.00000000
  H      2    1     -2.06882847     -1.44022412      0.00000000
  H      3    1     -0.12337987     -2.77567521      0.00000000
  H      4    1      0.04651892      1.98813947     -0.00000000
  C      5    6     -1.21953563      0.40211669      0.00000000
  O      6    8     -2.25921553      1.03043814      0.00000000
  C      7    6      1.28797806      0.34644937     -0.00000000
  O      8    8      2.31273661      1.00537216     -0.00000000
  N      9    7      0.03446295      0.97739857     -0.00000000
  N     10    7     -1.17287765     -0.98229824      0.00000000
  C     11    6      1.20107039     -1.10433419     -0.00000000
  H     12    1      2.11220096     -1.67699125     -0.00000000

======= END OF MOLDEN-FORMATTED INPUT FILE =======


        *************************************************************
        *                                                           *
        *  Thank you very much for using Q-Chem.  Have a nice day.  *
        *                                                           *
        *************************************************************


