[Molden Format]
[Atoms] (Angs)
  C      1    6     -0.00714236     -1.70213747     -0.00000000
  H      2    1     -2.06882847     -1.44022412      0.00000000
  H      3    1     -0.12337987     -2.77567521      0.00000000
  H      4    1      0.04651892      1.98813947     -0.00000000
  C      5    6     -1.21953563      0.40211669      0.00000000
  O      6    8     -2.25921553      1.03043814      0.00000000
  C      7    6      1.28797806      0.34644937     -0.00000000
  O      8    8      2.31273661      1.00537216     -0.00000000
  N      9    7      0.03446295      0.97739857     -0.00000000
  N     10    7     -1.17287765     -0.98229824      0.00000000
  C     11    6      1.20107039     -1.10433419     -0.00000000
  H     12    1      2.11220096     -1.67699125     -0.00000000
[GTO]
1    0
S    1    1.000000
   4.56324000E+03    1.96665000E-03 
S    1    1.000000
   6.82024000E+02    1.52306000E-02 
S    1    1.000000
   1.54973000E+02    7.61269000E-02 
S    1    1.000000
   4.44553000E+01    2.60801000E-01 
S    1    1.000000
   1.30290000E+01    6.16462000E-01 
S    1    1.000000
   1.82773000E+00    2.21006000E-01 
SP   3    1.000000
   2.09642000E+01    1.14660000E-01   4.02487000E-02 
   4.80331000E+00    9.19999000E-01   2.37594000E-01 
   1.45933000E+00   -3.03068000E-03   8.15854000E-01 
SP   1    1.000000
   4.83456000E-01    1.00000000E+00   1.00000000E+00 
SP   1    1.000000
   1.45585000E-01    1.00000000E+00   1.00000000E+00 
SP   1    1.000000
   4.38000000E-02    1.00000000E+00   1.00000000E+00 
SP   1    1.000000
   1.31927711E-02    1.00000000E+00   1.00000000E+00 
D    1    1.000000
   6.26000000E-01    1.00000000E+00 

2    0
S    3    1.000000
   3.38650000E+01    2.54938000E-02 
   5.09479000E+00    1.90373000E-01 
   1.15879000E+00    8.52161000E-01 
S    1    1.000000
   3.25840000E-01    1.00000000E+00 
S    1    1.000000
   1.02741000E-01    1.00000000E+00 
S    1    1.000000
   3.60000000E-02    1.00000000E+00 
P    1    1.000000
   7.50000000E-01    1.00000000E+00 

3    0
S    3    1.000000
   3.38650000E+01    2.54938000E-02 
   5.09479000E+00    1.90373000E-01 
   1.15879000E+00    8.52161000E-01 
S    1    1.000000
   3.25840000E-01    1.00000000E+00 
S    1    1.000000
   1.02741000E-01    1.00000000E+00 
S    1    1.000000
   3.60000000E-02    1.00000000E+00 
P    1    1.000000
   7.50000000E-01    1.00000000E+00 

4    0
S    3    1.000000
   3.38650000E+01    2.54938000E-02 
   5.09479000E+00    1.90373000E-01 
   1.15879000E+00    8.52161000E-01 
S    1    1.000000
   3.25840000E-01    1.00000000E+00 
S    1    1.000000
   1.02741000E-01    1.00000000E+00 
S    1    1.000000
   3.60000000E-02    1.00000000E+00 
P    1    1.000000
   7.50000000E-01    1.00000000E+00 

5    0
S    1    1.000000
   4.56324000E+03    1.96665000E-03 
S    1    1.000000
   6.82024000E+02    1.52306000E-02 
S    1    1.000000
   1.54973000E+02    7.61269000E-02 
S    1    1.000000
   4.44553000E+01    2.60801000E-01 
S    1    1.000000
   1.30290000E+01    6.16462000E-01 
S    1    1.000000
   1.82773000E+00    2.21006000E-01 
SP   3    1.000000
   2.09642000E+01    1.14660000E-01   4.02487000E-02 
   4.80331000E+00    9.19999000E-01   2.37594000E-01 
   1.45933000E+00   -3.03068000E-03   8.15854000E-01 
SP   1    1.000000
   4.83456000E-01    1.00000000E+00   1.00000000E+00 
SP   1    1.000000
   1.45585000E-01    1.00000000E+00   1.00000000E+00 
SP   1    1.000000
   4.38000000E-02    1.00000000E+00   1.00000000E+00 
SP   1    1.000000
   1.31927711E-02    1.00000000E+00   1.00000000E+00 
D    1    1.000000
   6.26000000E-01    1.00000000E+00 

6    0
S    1    1.000000
   8.58850000E+03    1.89515000E-03 
S    1    1.000000
   1.29723000E+03    1.43859000E-02 
S    1    1.000000
   2.99296000E+02    7.07320000E-02 
S    1    1.000000
   8.73771000E+01    2.40001000E-01 
S    1    1.000000
   2.56789000E+01    5.94797000E-01 
S    1    1.000000
   3.74004000E+00    2.80802000E-01 
SP   3    1.000000
   4.21175000E+01    1.13889000E-01   3.65114000E-02 
   9.62837000E+00    9.20811000E-01   2.37153000E-01 
   2.85332000E+00   -3.27447000E-03   8.19702000E-01 
SP   1    1.000000
   9.05661000E-01    1.00000000E+00   1.00000000E+00 
SP   1    1.000000
   2.55611000E-01    1.00000000E+00   1.00000000E+00 
SP   1    1.000000
   8.45000000E-02    1.00000000E+00   1.00000000E+00 
SP   1    1.000000
   2.54518072E-02    1.00000000E+00   1.00000000E+00 
D    1    1.000000
   1.29200000E+00    1.00000000E+00 

7    0
S    1    1.000000
   4.56324000E+03    1.96665000E-03 
S    1    1.000000
   6.82024000E+02    1.52306000E-02 
S    1    1.000000
   1.54973000E+02    7.61269000E-02 
S    1    1.000000
   4.44553000E+01    2.60801000E-01 
S    1    1.000000
   1.30290000E+01    6.16462000E-01 
S    1    1.000000
   1.82773000E+00    2.21006000E-01 
SP   3    1.000000
   2.09642000E+01    1.14660000E-01   4.02487000E-02 
   4.80331000E+00    9.19999000E-01   2.37594000E-01 
   1.45933000E+00   -3.03068000E-03   8.15854000E-01 
SP   1    1.000000
   4.83456000E-01    1.00000000E+00   1.00000000E+00 
SP   1    1.000000
   1.45585000E-01    1.00000000E+00   1.00000000E+00 
SP   1    1.000000
   4.38000000E-02    1.00000000E+00   1.00000000E+00 
SP   1    1.000000
   1.31927711E-02    1.00000000E+00   1.00000000E+00 
D    1    1.000000
   6.26000000E-01    1.00000000E+00 

8    0
S    1    1.000000
   8.58850000E+03    1.89515000E-03 
S    1    1.000000
   1.29723000E+03    1.43859000E-02 
S    1    1.000000
   2.99296000E+02    7.07320000E-02 
S    1    1.000000
   8.73771000E+01    2.40001000E-01 
S    1    1.000000
   2.56789000E+01    5.94797000E-01 
S    1    1.000000
   3.74004000E+00    2.80802000E-01 
SP   3    1.000000
   4.21175000E+01    1.13889000E-01   3.65114000E-02 
   9.62837000E+00    9.20811000E-01   2.37153000E-01 
   2.85332000E+00   -3.27447000E-03   8.19702000E-01 
SP   1    1.000000
   9.05661000E-01    1.00000000E+00   1.00000000E+00 
SP   1    1.000000
   2.55611000E-01    1.00000000E+00   1.00000000E+00 
SP   1    1.000000
   8.45000000E-02    1.00000000E+00   1.00000000E+00 
SP   1    1.000000
   2.54518072E-02    1.00000000E+00   1.00000000E+00 
D    1    1.000000
   1.29200000E+00    1.00000000E+00 

9    0
S    1    1.000000
   6.29348000E+03    1.96979000E-03 
S    1    1.000000
   9.49044000E+02    1.49613000E-02 
S    1    1.000000
   2.18776000E+02    7.35006000E-02 
S    1    1.000000
   6.36916000E+01    2.48937000E-01 
S    1    1.000000
   1.88282000E+01    6.02460000E-01 
S    1    1.000000
   2.72023000E+00    2.56202000E-01 
SP   3    1.000000
   3.06331000E+01    1.11906000E-01   3.83119000E-02 
   7.02614000E+00    9.21666000E-01   2.37403000E-01 
   2.11205000E+00   -2.56919000E-03   8.17592000E-01 
SP   1    1.000000
   6.84009000E-01    1.00000000E+00   1.00000000E+00 
SP   1    1.000000
   2.00878000E-01    1.00000000E+00   1.00000000E+00 
SP   1    1.000000
   6.39000000E-02    1.00000000E+00   1.00000000E+00 
SP   1    1.000000
   1.92469880E-02    1.00000000E+00   1.00000000E+00 
D    1    1.000000
   9.13000000E-01    1.00000000E+00 

10    0
S    1    1.000000
   6.29348000E+03    1.96979000E-03 
S    1    1.000000
   9.49044000E+02    1.49613000E-02 
S    1    1.000000
   2.18776000E+02    7.35006000E-02 
S    1    1.000000
   6.36916000E+01    2.48937000E-01 
S    1    1.000000
   1.88282000E+01    6.02460000E-01 
S    1    1.000000
   2.72023000E+00    2.56202000E-01 
SP   3    1.000000
   3.06331000E+01    1.11906000E-01   3.83119000E-02 
   7.02614000E+00    9.21666000E-01   2.37403000E-01 
   2.11205000E+00   -2.56919000E-03   8.17592000E-01 
SP   1    1.000000
   6.84009000E-01    1.00000000E+00   1.00000000E+00 
SP   1    1.000000
   2.00878000E-01    1.00000000E+00   1.00000000E+00 
SP   1    1.000000
   6.39000000E-02    1.00000000E+00   1.00000000E+00 
SP   1    1.000000
   1.92469880E-02    1.00000000E+00   1.00000000E+00 
D    1    1.000000
   9.13000000E-01    1.00000000E+00 

11    0
S    1    1.000000
   4.56324000E+03    1.96665000E-03 
S    1    1.000000
   6.82024000E+02    1.52306000E-02 
S    1    1.000000
   1.54973000E+02    7.61269000E-02 
S    1    1.000000
   4.44553000E+01    2.60801000E-01 
S    1    1.000000
   1.30290000E+01    6.16462000E-01 
S    1    1.000000
   1.82773000E+00    2.21006000E-01 
SP   3    1.000000
   2.09642000E+01    1.14660000E-01   4.02487000E-02 
   4.80331000E+00    9.19999000E-01   2.37594000E-01 
   1.45933000E+00   -3.03068000E-03   8.15854000E-01 
SP   1    1.000000
   4.83456000E-01    1.00000000E+00   1.00000000E+00 
SP   1    1.000000
   1.45585000E-01    1.00000000E+00   1.00000000E+00 
SP   1    1.000000
   4.38000000E-02    1.00000000E+00   1.00000000E+00 
SP   1    1.000000
   1.31927711E-02    1.00000000E+00   1.00000000E+00 
D    1    1.000000
   6.26000000E-01    1.00000000E+00 

12    0
S    3    1.000000
   3.38650000E+01    2.54938000E-02 
   5.09479000E+00    1.90373000E-01 
   1.15879000E+00    8.52161000E-01 
S    1    1.000000
   3.25840000E-01    1.00000000E+00 
S    1    1.000000
   1.02741000E-01    1.00000000E+00 
S    1    1.000000
   3.60000000E-02    1.00000000E+00 
P    1    1.000000
   7.50000000E-01    1.00000000E+00 

[MO]
Sym=X
Ene=0.921619
Spin=Alpha
Occup=1
1    0.000424743902
2    0.0021185324
3    0.00727542967
4    0.0171754288
5    0.00634096117
6    0.0230968544
7    -0.000170585584
8    -2.51723522e-05
9    1.45903774e-16
10    -0.000538533906
11    -0.000661249895
12    -0.000411943535
13    2.7532192e-15
14    2.61343347e-05
15    4.71469144e-05
16    0.000142046193
17    1.56438955e-15
18    0.003298863
19    0.000284669921
20    0.00113237643
21    -5.59147726e-14
22    0.000273239154
23    -6.11204109e-05
24    0.000173627978
25    6.25026002e-14
26    -0.000309823588
27    5.33366322e-16
28    7.90948205e-05
29    -1.69613221e-15
30    -0.000226026572
31    -4.87024532e-06
32    -3.21191943e-05
33    1.90002667e-05
34    -2.11914956e-05
35    -1.16341574e-05
36    3.49592039e-06
37    1.65872433e-15
38    -5.46253799e-06
39    -7.25877873e-05
40    0.0002439598
41    0.000315797108
42    -3.78511372e-05
43    -4.49671734e-05
44    4.20560051e-16
45    -8.8388066e-06
46    -3.45207515e-05
47    1.26377901e-05
48    -3.26583857e-05
49    -3.51501103e-06
50    9.87663359e-06
51    3.88726828e-16
52    -7.56922765e-08
53    -6.03397802e-07
54    -2.88448885e-06
55    -1.03910286e-05
56    -1.9927646e-05
57    1.10044324e-05
58    -4.30664618e-05
59    3.72544813e-06
60    -2.64394742e-06
61    2.385017e-15
62    -4.65427061e-05
63    -1.50323582e-05
64    1.14338985e-05
65    7.88866811e-15
66    0.000150517078
67    0.000248038771
68    -0.000154365075
69    4.05294188e-15
70    -0.000805995277
71    -2.53220589e-05
72    0.00015198144
73    -7.41498847e-14
74    -0.000383798976
75    -6.46065214e-05
76    -3.68817599e-05
77    -6.00437071e-14
78    -4.13990825e-06
79    -2.92307174e-16
80    -1.90488174e-06
81    -1.00026693e-15
82    -1.10028635e-06
83    3.3168068e-10
84    -3.54581979e-09
85    2.62548127e-08
86    -7.37815858e-08
87    1.42789338e-06
88    6.12848378e-06
89    -3.64021291e-06
90    1.55716614e-06
91    -5.57740256e-07
92    2.39717841e-15
93    -1.61025911e-05
94    -8.13203151e-06
95    3.21734701e-06
96    3.10264073e-15
97    7.68422119e-05
98    3.70579168e-05
99    -1.96371868e-05
100    5.25921409e-15
101    0.000341230163
102    8.03884273e-05
103    -5.26271372e-05
104    1.25532858e-14
105    0.000120094112
106    -2.75005007e-05
107    -0.000107453318
108    2.95957378e-14
109    1.60130705e-08
110    -4.40303558e-16
111    -7.12110151e-07
112    3.21738208e-16
113    -7.29317077e-07
114    8.81479944e-06
115    6.8199728e-05
116    0.000340612636
117    0.00116854541
118    0.00277703404
119    0.0011578034
120    0.00369424682
121    -2.19791579e-06
122    7.82225397e-05
123    -1.79584811e-15
124    -0.000535287948
125    4.79118331e-05
126    0.000694823275
127    -7.44315541e-15
128    -9.51590068e-05
129    -0.000152309508
130    -0.000221341816
131    1.06608202e-16
132    0.00289568522
133    -0.000672783642
134    -0.00111873804
135    -7.70933716e-14
136    0.000497544615
137    -6.34586415e-05
138    8.82372926e-05
139    3.70974971e-14
140    -6.32390983e-05
141    -9.54547544e-16
142    0.000111404999
143    -2.51821577e-15
144    0.000362281718
145    -8.61474246e-09
146    -8.59672571e-08
147    -2.80067502e-07
148    -1.48967574e-06
149    1.92173434e-06
150    1.95190376e-05
151    -1.96213272e-05
152    -5.31828394e-06
153    -2.3105483e-05
154    -3.56677047e-15
155    -3.4127608e-05
156    2.24674771e-05
157    3.2171482e-05
158    -3.93276158e-15
159    3.96669804e-05
160    -3.56666001e-05
161    -1.42377438e-05
162    -1.0058632e-14
163    0.000424626186
164    -5.90475806e-05
165    -4.93326802e-06
166    1.29913279e-15
167    0.00151140846
168    -0.000327181046
169    -7.34314288e-05
170    -5.43216715e-15
171    -2.28015602e-05
172    2.39334206e-16
173    -4.4867153e-07
174    6.57698585e-16
175    2.15812196e-05
176    -1.14217396e-08
177    -1.16485229e-07
178    -3.64759903e-07
179    -2.03616174e-06
180    2.86190667e-06
181    2.91583024e-05
182    -2.62079876e-05
183    1.92430262e-05
184    -1.06553993e-05
185    -1.93303835e-15
186    -3.93004752e-05
187    -5.94770493e-05
188    2.32250388e-05
189    5.31146891e-15
190    -5.51556422e-05
191    7.62044617e-05
192    7.51767726e-05
193    -1.70594594e-14
194    -0.000261276279
195    7.17784797e-05
196    8.03507655e-05
197    5.65300084e-14
198    -0.000639992923
199    -0.000576958441
200    4.97257627e-05
201    3.8182186e-14
202    2.70501101e-05
203    -3.75549458e-16
204    2.10815069e-06
205    -1.45998354e-15
206    -1.90699352e-05
207    -2.48764668e-08
208    -2.18097285e-07
209    -8.72952845e-07
210    -3.74651301e-06
211    -1.66646632e-06
212    2.28130185e-05
213    -3.25350016e-05
214    2.43322397e-05
215    -9.30463614e-06
216    9.5698668e-16
217    -2.74616135e-05
218    -3.61007741e-05
219    1.24525473e-05
220    9.37860073e-15
221    -3.66141042e-05
222    -1.25976403e-05
223    -8.17755938e-05
224    -5.9651407e-15
225    -0.000468415382
226    -0.000128730021
227    3.43549573e-06
228    5.63495288e-14
229    -0.00038524892
230    0.000154193332
231    -0.000196936502
232    1.2407002e-14
233    8.9439361e-06
234    6.58309838e-16
235    -6.80345315e-07
236    -2.87672345e-16
237    -2.15342493e-05
238    -0.00110732239
239    -0.00857258226
240    -0.0427620913
241    -0.146821339
242    -0.346825153
243    -0.127538264
244    -0.463970235
245    0.000447874335
246    -0.000165649046
247    -1.95516523e-15
248    -0.00245538296
249    -0.000160472738
250    7.42669902e-05
251    8.99732027e-16
252    4.84944371e-05
253    0.000311287909
254    -0.000152420908
255    -1.21225716e-14
256    -0.00605302649
257    0.00121222854
258    -0.00112325833
259    6.86419531e-14
260    -0.00024269734
261    5.51670987e-05
262    -0.000143239411
263    -7.70481907e-14
264    -1.74728832e-05
265    -1.16036993e-15
266    -0.000391100765
267    -7.58385859e-16
268    -4.62405855e-05
269    -0.000394639291
270    -0.000524671491
271    -0.00012881927
272    -0.000505046413
273    0.000293715701
274    -0.000171255511
275    -6.78027218e-16
[5D]