[Molden Format]
[Atoms] (Angs)
  C      1    6     -0.00714236     -1.70213747     -0.00000000
  H      2    1     -2.06882847     -1.44022412      0.00000000
  H      3    1     -0.12337987     -2.77567521      0.00000000
  H      4    1      0.04651892      1.98813947     -0.00000000
  C      5    6     -1.21953563      0.40211669      0.00000000
  O      6    8     -2.25921553      1.03043814      0.00000000
  C      7    6      1.28797806      0.34644937     -0.00000000
  O      8    8      2.31273661      1.00537216     -0.00000000
  N      9    7      0.03446295      0.97739857     -0.00000000
  N     10    7     -1.17287765     -0.98229824      0.00000000
  C     11    6      1.20107039     -1.10433419     -0.00000000
  H     12    1      2.11220096     -1.67699125     -0.00000000
[GTO]
1    0
S    1    1.000000
   4.56324000E+03    1.96665000E-03 
S    1    1.000000
   6.82024000E+02    1.52306000E-02 
S    1    1.000000
   1.54973000E+02    7.61269000E-02 
S    1    1.000000
   4.44553000E+01    2.60801000E-01 
S    1    1.000000
   1.30290000E+01    6.16462000E-01 
S    1    1.000000
   1.82773000E+00    2.21006000E-01 
SP   3    1.000000
   2.09642000E+01    1.14660000E-01   4.02487000E-02 
   4.80331000E+00    9.19999000E-01   2.37594000E-01 
   1.45933000E+00   -3.03068000E-03   8.15854000E-01 
SP   1    1.000000
   4.83456000E-01    1.00000000E+00   1.00000000E+00 
SP   1    1.000000
   1.45585000E-01    1.00000000E+00   1.00000000E+00 
SP   1    1.000000
   4.38000000E-02    1.00000000E+00   1.00000000E+00 
SP   1    1.000000
   1.31927711E-02    1.00000000E+00   1.00000000E+00 
D    1    1.000000
   6.26000000E-01    1.00000000E+00 

2    0
S    3    1.000000
   3.38650000E+01    2.54938000E-02 
   5.09479000E+00    1.90373000E-01 
   1.15879000E+00    8.52161000E-01 
S    1    1.000000
   3.25840000E-01    1.00000000E+00 
S    1    1.000000
   1.02741000E-01    1.00000000E+00 
S    1    1.000000
   3.60000000E-02    1.00000000E+00 
P    1    1.000000
   7.50000000E-01    1.00000000E+00 

3    0
S    3    1.000000
   3.38650000E+01    2.54938000E-02 
   5.09479000E+00    1.90373000E-01 
   1.15879000E+00    8.52161000E-01 
S    1    1.000000
   3.25840000E-01    1.00000000E+00 
S    1    1.000000
   1.02741000E-01    1.00000000E+00 
S    1    1.000000
   3.60000000E-02    1.00000000E+00 
P    1    1.000000
   7.50000000E-01    1.00000000E+00 

4    0
S    3    1.000000
   3.38650000E+01    2.54938000E-02 
   5.09479000E+00    1.90373000E-01 
   1.15879000E+00    8.52161000E-01 
S    1    1.000000
   3.25840000E-01    1.00000000E+00 
S    1    1.000000
   1.02741000E-01    1.00000000E+00 
S    1    1.000000
   3.60000000E-02    1.00000000E+00 
P    1    1.000000
   7.50000000E-01    1.00000000E+00 

5    0
S    1    1.000000
   4.56324000E+03    1.96665000E-03 
S    1    1.000000
   6.82024000E+02    1.52306000E-02 
S    1    1.000000
   1.54973000E+02    7.61269000E-02 
S    1    1.000000
   4.44553000E+01    2.60801000E-01 
S    1    1.000000
   1.30290000E+01    6.16462000E-01 
S    1    1.000000
   1.82773000E+00    2.21006000E-01 
SP   3    1.000000
   2.09642000E+01    1.14660000E-01   4.02487000E-02 
   4.80331000E+00    9.19999000E-01   2.37594000E-01 
   1.45933000E+00   -3.03068000E-03   8.15854000E-01 
SP   1    1.000000
   4.83456000E-01    1.00000000E+00   1.00000000E+00 
SP   1    1.000000
   1.45585000E-01    1.00000000E+00   1.00000000E+00 
SP   1    1.000000
   4.38000000E-02    1.00000000E+00   1.00000000E+00 
SP   1    1.000000
   1.31927711E-02    1.00000000E+00   1.00000000E+00 
D    1    1.000000
   6.26000000E-01    1.00000000E+00 

6    0
S    1    1.000000
   8.58850000E+03    1.89515000E-03 
S    1    1.000000
   1.29723000E+03    1.43859000E-02 
S    1    1.000000
   2.99296000E+02    7.07320000E-02 
S    1    1.000000
   8.73771000E+01    2.40001000E-01 
S    1    1.000000
   2.56789000E+01    5.94797000E-01 
S    1    1.000000
   3.74004000E+00    2.80802000E-01 
SP   3    1.000000
   4.21175000E+01    1.13889000E-01   3.65114000E-02 
   9.62837000E+00    9.20811000E-01   2.37153000E-01 
   2.85332000E+00   -3.27447000E-03   8.19702000E-01 
SP   1    1.000000
   9.05661000E-01    1.00000000E+00   1.00000000E+00 
SP   1    1.000000
   2.55611000E-01    1.00000000E+00   1.00000000E+00 
SP   1    1.000000
   8.45000000E-02    1.00000000E+00   1.00000000E+00 
SP   1    1.000000
   2.54518072E-02    1.00000000E+00   1.00000000E+00 
D    1    1.000000
   1.29200000E+00    1.00000000E+00 

7    0
S    1    1.000000
   4.56324000E+03    1.96665000E-03 
S    1    1.000000
   6.82024000E+02    1.52306000E-02 
S    1    1.000000
   1.54973000E+02    7.61269000E-02 
S    1    1.000000
   4.44553000E+01    2.60801000E-01 
S    1    1.000000
   1.30290000E+01    6.16462000E-01 
S    1    1.000000
   1.82773000E+00    2.21006000E-01 
SP   3    1.000000
   2.09642000E+01    1.14660000E-01   4.02487000E-02 
   4.80331000E+00    9.19999000E-01   2.37594000E-01 
   1.45933000E+00   -3.03068000E-03   8.15854000E-01 
SP   1    1.000000
   4.83456000E-01    1.00000000E+00   1.00000000E+00 
SP   1    1.000000
   1.45585000E-01    1.00000000E+00   1.00000000E+00 
SP   1    1.000000
   4.38000000E-02    1.00000000E+00   1.00000000E+00 
SP   1    1.000000
   1.31927711E-02    1.00000000E+00   1.00000000E+00 
D    1    1.000000
   6.26000000E-01    1.00000000E+00 

8    0
S    1    1.000000
   8.58850000E+03    1.89515000E-03 
S    1    1.000000
   1.29723000E+03    1.43859000E-02 
S    1    1.000000
   2.99296000E+02    7.07320000E-02 
S    1    1.000000
   8.73771000E+01    2.40001000E-01 
S    1    1.000000
   2.56789000E+01    5.94797000E-01 
S    1    1.000000
   3.74004000E+00    2.80802000E-01 
SP   3    1.000000
   4.21175000E+01    1.13889000E-01   3.65114000E-02 
   9.62837000E+00    9.20811000E-01   2.37153000E-01 
   2.85332000E+00   -3.27447000E-03   8.19702000E-01 
SP   1    1.000000
   9.05661000E-01    1.00000000E+00   1.00000000E+00 
SP   1    1.000000
   2.55611000E-01    1.00000000E+00   1.00000000E+00 
SP   1    1.000000
   8.45000000E-02    1.00000000E+00   1.00000000E+00 
SP   1    1.000000
   2.54518072E-02    1.00000000E+00   1.00000000E+00 
D    1    1.000000
   1.29200000E+00    1.00000000E+00 

9    0
S    1    1.000000
   6.29348000E+03    1.96979000E-03 
S    1    1.000000
   9.49044000E+02    1.49613000E-02 
S    1    1.000000
   2.18776000E+02    7.35006000E-02 
S    1    1.000000
   6.36916000E+01    2.48937000E-01 
S    1    1.000000
   1.88282000E+01    6.02460000E-01 
S    1    1.000000
   2.72023000E+00    2.56202000E-01 
SP   3    1.000000
   3.06331000E+01    1.11906000E-01   3.83119000E-02 
   7.02614000E+00    9.21666000E-01   2.37403000E-01 
   2.11205000E+00   -2.56919000E-03   8.17592000E-01 
SP   1    1.000000
   6.84009000E-01    1.00000000E+00   1.00000000E+00 
SP   1    1.000000
   2.00878000E-01    1.00000000E+00   1.00000000E+00 
SP   1    1.000000
   6.39000000E-02    1.00000000E+00   1.00000000E+00 
SP   1    1.000000
   1.92469880E-02    1.00000000E+00   1.00000000E+00 
D    1    1.000000
   9.13000000E-01    1.00000000E+00 

10    0
S    1    1.000000
   6.29348000E+03    1.96979000E-03 
S    1    1.000000
   9.49044000E+02    1.49613000E-02 
S    1    1.000000
   2.18776000E+02    7.35006000E-02 
S    1    1.000000
   6.36916000E+01    2.48937000E-01 
S    1    1.000000
   1.88282000E+01    6.02460000E-01 
S    1    1.000000
   2.72023000E+00    2.56202000E-01 
SP   3    1.000000
   3.06331000E+01    1.11906000E-01   3.83119000E-02 
   7.02614000E+00    9.21666000E-01   2.37403000E-01 
   2.11205000E+00   -2.56919000E-03   8.17592000E-01 
SP   1    1.000000
   6.84009000E-01    1.00000000E+00   1.00000000E+00 
SP   1    1.000000
   2.00878000E-01    1.00000000E+00   1.00000000E+00 
SP   1    1.000000
   6.39000000E-02    1.00000000E+00   1.00000000E+00 
SP   1    1.000000
   1.92469880E-02    1.00000000E+00   1.00000000E+00 
D    1    1.000000
   9.13000000E-01    1.00000000E+00 

11    0
S    1    1.000000
   4.56324000E+03    1.96665000E-03 
S    1    1.000000
   6.82024000E+02    1.52306000E-02 
S    1    1.000000
   1.54973000E+02    7.61269000E-02 
S    1    1.000000
   4.44553000E+01    2.60801000E-01 
S    1    1.000000
   1.30290000E+01    6.16462000E-01 
S    1    1.000000
   1.82773000E+00    2.21006000E-01 
SP   3    1.000000
   2.09642000E+01    1.14660000E-01   4.02487000E-02 
   4.80331000E+00    9.19999000E-01   2.37594000E-01 
   1.45933000E+00   -3.03068000E-03   8.15854000E-01 
SP   1    1.000000
   4.83456000E-01    1.00000000E+00   1.00000000E+00 
SP   1    1.000000
   1.45585000E-01    1.00000000E+00   1.00000000E+00 
SP   1    1.000000
   4.38000000E-02    1.00000000E+00   1.00000000E+00 
SP   1    1.000000
   1.31927711E-02    1.00000000E+00   1.00000000E+00 
D    1    1.000000
   6.26000000E-01    1.00000000E+00 

12    0
S    3    1.000000
   3.38650000E+01    2.54938000E-02 
   5.09479000E+00    1.90373000E-01 
   1.15879000E+00    8.52161000E-01 
S    1    1.000000
   3.25840000E-01    1.00000000E+00 
S    1    1.000000
   1.02741000E-01    1.00000000E+00 
S    1    1.000000
   3.60000000E-02    1.00000000E+00 
P    1    1.000000
   7.50000000E-01    1.00000000E+00 

[MO]
Sym=X
Ene=0.929969
Spin=Alpha
Occup=1
1    1.61316415e-06
2    8.13506688e-06
3    2.76114473e-05
4    6.9452872e-05
5    4.91349934e-05
6    7.5075316e-05
7    -1.72771462e-05
8    8.54834683e-06
9    -2.87487875e-15
10    -5.76079271e-05
11    9.19456618e-05
12    -3.03355351e-05
13    -6.68038519e-15
14    0.000192835519
15    -6.67787772e-05
16    8.27455587e-05
17    -4.68613251e-15
18    -0.00433037551
19    -0.000659690739
20    -0.0017287365
21    -1.73551981e-14
22    -0.000346415737
23    0.000240893986
24    -0.000152191662
25    -5.5493758e-14
26    6.07682261e-05
27    -5.96745641e-16
28    -1.64321842e-05
29    3.26069856e-16
30    -2.6383061e-07
31    -3.79418019e-05
32    1.18350317e-05
33    -4.2507198e-05
34    2.07184156e-05
35    -3.77168296e-05
36    -1.50713383e-05
37    -2.01786905e-15
38    -1.28908973e-05
39    -1.69322696e-09
40    -5.93432876e-07
41    -0.00115068664
42    6.82314781e-06
43    -9.07717289e-06
44    -1.37878585e-15
45    -3.14361528e-05
46    -5.26963454e-05
47    0.000179491077
48    -3.53793942e-06
49    1.94331284e-05
50    5.1945164e-05
51    1.79137284e-15
52    -0.00110965958
53    -0.00859038368
54    -0.0428542182
55    -0.147125311
56    -0.347588968
57    -0.126292229
58    -0.465602858
59    -0.000573050619
60    0.000735995367
61    1.14575311e-16
62    -0.00145969326
63    0.000630524867
64    -0.000703654394
65    3.96062159e-15
66    -0.00187301832
67    -0.000480621689
68    0.000371355825
69    -6.00184444e-15
70    0.000569873728
71    0.000962693592
72    -0.000269452055
73    2.00522014e-14
74    0.000982158681
75    4.98487912e-05
76    -0.000116463896
77    3.27420215e-14
78    0.000254759584
79    2.56349058e-15
80    0.000375241632
81    4.5497601e-17
82    -0.000219309872
83    3.80884947e-07
84    2.79868886e-06
85    1.46225381e-05
86    4.6867745e-05
87    0.000138878125
88    0.000181938051
89    0.000200225716
90    -0.000212984787
91    0.000127121314
92    1.28722446e-15
93    -0.000595351336
94    -0.000535786103
95    0.00031698272
96    1.73339666e-15
97    0.000300216124
98    0.000282664491
99    -0.000155052845
100    3.90752269e-15
101    -0.00019273028
102    -0.000330260435
103    0.000141087019
104    1.29819032e-15
105    0.000968676898
106    0.000134566003
107    -0.000130268831
108    -2.24376088e-14
109    0.000242186366
110    -2.71728665e-16
111    0.000116779907
112    8.03945391e-17
113    -0.000125924686
114    3.51175966e-07
115    2.70081899e-06
116    1.35980226e-05
117    4.62065473e-05
118    0.000114322766
119    6.52255797e-05
120    0.000132705575
121    -1.88515111e-05
122    2.27874724e-06
123    1.76430568e-15
124    -3.72412246e-05
125    5.6469593e-05
126    -6.1949172e-06
127    2.10055796e-15
128    -0.000115992487
129    -0.00032965734
130    -2.25954079e-06
131    6.82614299e-15
132    -0.00410126674
133    0.000577635072
134    0.0010859996
135    -4.28301016e-14
136    -0.000846284413
137    0.000159192781
138    0.000131877823
139    -1.71602581e-14
140    8.28720403e-06
141    2.16948196e-15
142    -5.36953644e-06
143    9.25852101e-16
144    -4.0290397e-05
145    1.55455492e-09
146    -1.03274814e-09
147    8.82786212e-08
148    -4.94257471e-08
149    3.22098949e-06
150    1.24287094e-05
151    -6.70213582e-06
152    -1.77279375e-06
153    -7.79375668e-07
154    2.13784542e-15
155    -3.14008413e-05
156    2.24732626e-05
157    1.59684076e-06
158    4.49251817e-15
159    9.60297326e-05
160    -5.1425488e-05
161    -5.23655542e-05
162    1.64656091e-15
163    0.000569618784
164    -0.000205371967
165    -0.000116205664
166    1.26732031e-14
167    -5.50558652e-05
168    -1.66559369e-05
169    -0.000131175743
170    1.58109539e-14
171    2.83323716e-06
172    -1.5477041e-16
173    -9.07136864e-07
174    -5.28551362e-16
175    -5.86679702e-06
176    3.06663832e-07
177    2.22042286e-06
178    1.18151354e-05
179    3.70054968e-05
180    0.00012039554
181    0.000202952378
182    0.000101279215
183    7.93687761e-05
184    4.49240662e-05
185    1.39429546e-15
186    -0.000521930514
187    0.000567551294
188    0.0002733163
189    5.00705917e-15
190    0.000283305676
191    -0.000309999692
192    -6.81638846e-05
193    -1.06071254e-16
194    0.000120456372
195    -0.000387554424
196    -0.000344393996
197    2.03426428e-14
198    -0.00032258019
199    0.000240912649
200    6.21692659e-05
201    -7.22158251e-15
202    -0.000212520686
203    1.42359614e-16
204    7.4612307e-05
205    8.81977417e-17
206    -0.000187592298
207    2.95073162e-07
208    2.09495196e-06
209    1.14660214e-05
210    3.4810101e-05
211    0.000124955126
212    0.000242996482
213    7.18346496e-05
214    -9.16568722e-06
215    -8.22874814e-05
216    -2.31348573e-15
217    -0.000584436922
218    3.89903081e-05
219    -0.000743647082
220    -5.69584633e-15
221    0.00020516209
222    1.13685534e-05
223    0.000207765326
224    -6.55325315e-16
225    0.00111225728
226    -3.97889217e-05
227    0.000429766791
228    -8.61306586e-15
229    0.000383796964
230    0.000264393176
231    -0.000216943457
232    3.26952338e-14
233    2.94908176e-05
234    8.367369e-16
235    0.000106578355
236    -5.92562866e-16
237    0.00033513364
238    7.60859108e-08
239    5.59564724e-07
240    3.00408026e-06
241    9.49345323e-06
242    3.03174142e-05
243    4.41619371e-05
244    1.2637742e-05
245    -8.76163715e-06
246    2.34921394e-06
247    -2.59674583e-15
248    -8.35469428e-05
249    7.05066993e-05
250    -1.40271122e-05
251    -3.25774854e-15
252    1.04738937e-05
253    7.54349841e-05
254    1.40438303e-05
255    -7.38721811e-15
256    0.0069671882
257    -0.00119551334
258    0.00072872189
259    2.9108605e-14
260    7.44073471e-05
261    -5.1854042e-05
262    0.000106502671
263    4.22861839e-14
264    -2.61439824e-05
265    1.12446394e-15
266    -3.21862737e-06
267    1.26503519e-15
268    -4.78095694e-06
269    -6.03448295e-06
270    -4.6036212e-05
271    1.48463699e-05
272    0.00016416511
273    1.30078973e-05
274    -7.78553308e-06
275    -1.08745476e-15
[5D]