[Molden Format]
[Atoms] (Angs)
  C      1    6     -0.00714236     -1.70213747     -0.00000000
  H      2    1     -2.06882847     -1.44022412      0.00000000
  H      3    1     -0.12337987     -2.77567521      0.00000000
  H      4    1      0.04651892      1.98813947     -0.00000000
  C      5    6     -1.21953563      0.40211669      0.00000000
  O      6    8     -2.25921553      1.03043814      0.00000000
  C      7    6      1.28797806      0.34644937     -0.00000000
  O      8    8      2.31273661      1.00537216     -0.00000000
  N      9    7      0.03446295      0.97739857     -0.00000000
  N     10    7     -1.17287765     -0.98229824      0.00000000
  C     11    6      1.20107039     -1.10433419     -0.00000000
  H     12    1      2.11220096     -1.67699125     -0.00000000
[GTO]
1    0
S    1    1.000000
   4.56324000E+03    1.96665000E-03 
S    1    1.000000
   6.82024000E+02    1.52306000E-02 
S    1    1.000000
   1.54973000E+02    7.61269000E-02 
S    1    1.000000
   4.44553000E+01    2.60801000E-01 
S    1    1.000000
   1.30290000E+01    6.16462000E-01 
S    1    1.000000
   1.82773000E+00    2.21006000E-01 
SP   3    1.000000
   2.09642000E+01    1.14660000E-01   4.02487000E-02 
   4.80331000E+00    9.19999000E-01   2.37594000E-01 
   1.45933000E+00   -3.03068000E-03   8.15854000E-01 
SP   1    1.000000
   4.83456000E-01    1.00000000E+00   1.00000000E+00 
SP   1    1.000000
   1.45585000E-01    1.00000000E+00   1.00000000E+00 
SP   1    1.000000
   4.38000000E-02    1.00000000E+00   1.00000000E+00 
SP   1    1.000000
   1.31927711E-02    1.00000000E+00   1.00000000E+00 
D    1    1.000000
   6.26000000E-01    1.00000000E+00 

2    0
S    3    1.000000
   3.38650000E+01    2.54938000E-02 
   5.09479000E+00    1.90373000E-01 
   1.15879000E+00    8.52161000E-01 
S    1    1.000000
   3.25840000E-01    1.00000000E+00 
S    1    1.000000
   1.02741000E-01    1.00000000E+00 
S    1    1.000000
   3.60000000E-02    1.00000000E+00 
P    1    1.000000
   7.50000000E-01    1.00000000E+00 

3    0
S    3    1.000000
   3.38650000E+01    2.54938000E-02 
   5.09479000E+00    1.90373000E-01 
   1.15879000E+00    8.52161000E-01 
S    1    1.000000
   3.25840000E-01    1.00000000E+00 
S    1    1.000000
   1.02741000E-01    1.00000000E+00 
S    1    1.000000
   3.60000000E-02    1.00000000E+00 
P    1    1.000000
   7.50000000E-01    1.00000000E+00 

4    0
S    3    1.000000
   3.38650000E+01    2.54938000E-02 
   5.09479000E+00    1.90373000E-01 
   1.15879000E+00    8.52161000E-01 
S    1    1.000000
   3.25840000E-01    1.00000000E+00 
S    1    1.000000
   1.02741000E-01    1.00000000E+00 
S    1    1.000000
   3.60000000E-02    1.00000000E+00 
P    1    1.000000
   7.50000000E-01    1.00000000E+00 

5    0
S    1    1.000000
   4.56324000E+03    1.96665000E-03 
S    1    1.000000
   6.82024000E+02    1.52306000E-02 
S    1    1.000000
   1.54973000E+02    7.61269000E-02 
S    1    1.000000
   4.44553000E+01    2.60801000E-01 
S    1    1.000000
   1.30290000E+01    6.16462000E-01 
S    1    1.000000
   1.82773000E+00    2.21006000E-01 
SP   3    1.000000
   2.09642000E+01    1.14660000E-01   4.02487000E-02 
   4.80331000E+00    9.19999000E-01   2.37594000E-01 
   1.45933000E+00   -3.03068000E-03   8.15854000E-01 
SP   1    1.000000
   4.83456000E-01    1.00000000E+00   1.00000000E+00 
SP   1    1.000000
   1.45585000E-01    1.00000000E+00   1.00000000E+00 
SP   1    1.000000
   4.38000000E-02    1.00000000E+00   1.00000000E+00 
SP   1    1.000000
   1.31927711E-02    1.00000000E+00   1.00000000E+00 
D    1    1.000000
   6.26000000E-01    1.00000000E+00 

6    0
S    1    1.000000
   8.58850000E+03    1.89515000E-03 
S    1    1.000000
   1.29723000E+03    1.43859000E-02 
S    1    1.000000
   2.99296000E+02    7.07320000E-02 
S    1    1.000000
   8.73771000E+01    2.40001000E-01 
S    1    1.000000
   2.56789000E+01    5.94797000E-01 
S    1    1.000000
   3.74004000E+00    2.80802000E-01 
SP   3    1.000000
   4.21175000E+01    1.13889000E-01   3.65114000E-02 
   9.62837000E+00    9.20811000E-01   2.37153000E-01 
   2.85332000E+00   -3.27447000E-03   8.19702000E-01 
SP   1    1.000000
   9.05661000E-01    1.00000000E+00   1.00000000E+00 
SP   1    1.000000
   2.55611000E-01    1.00000000E+00   1.00000000E+00 
SP   1    1.000000
   8.45000000E-02    1.00000000E+00   1.00000000E+00 
SP   1    1.000000
   2.54518072E-02    1.00000000E+00   1.00000000E+00 
D    1    1.000000
   1.29200000E+00    1.00000000E+00 

7    0
S    1    1.000000
   4.56324000E+03    1.96665000E-03 
S    1    1.000000
   6.82024000E+02    1.52306000E-02 
S    1    1.000000
   1.54973000E+02    7.61269000E-02 
S    1    1.000000
   4.44553000E+01    2.60801000E-01 
S    1    1.000000
   1.30290000E+01    6.16462000E-01 
S    1    1.000000
   1.82773000E+00    2.21006000E-01 
SP   3    1.000000
   2.09642000E+01    1.14660000E-01   4.02487000E-02 
   4.80331000E+00    9.19999000E-01   2.37594000E-01 
   1.45933000E+00   -3.03068000E-03   8.15854000E-01 
SP   1    1.000000
   4.83456000E-01    1.00000000E+00   1.00000000E+00 
SP   1    1.000000
   1.45585000E-01    1.00000000E+00   1.00000000E+00 
SP   1    1.000000
   4.38000000E-02    1.00000000E+00   1.00000000E+00 
SP   1    1.000000
   1.31927711E-02    1.00000000E+00   1.00000000E+00 
D    1    1.000000
   6.26000000E-01    1.00000000E+00 

8    0
S    1    1.000000
   8.58850000E+03    1.89515000E-03 
S    1    1.000000
   1.29723000E+03    1.43859000E-02 
S    1    1.000000
   2.99296000E+02    7.07320000E-02 
S    1    1.000000
   8.73771000E+01    2.40001000E-01 
S    1    1.000000
   2.56789000E+01    5.94797000E-01 
S    1    1.000000
   3.74004000E+00    2.80802000E-01 
SP   3    1.000000
   4.21175000E+01    1.13889000E-01   3.65114000E-02 
   9.62837000E+00    9.20811000E-01   2.37153000E-01 
   2.85332000E+00   -3.27447000E-03   8.19702000E-01 
SP   1    1.000000
   9.05661000E-01    1.00000000E+00   1.00000000E+00 
SP   1    1.000000
   2.55611000E-01    1.00000000E+00   1.00000000E+00 
SP   1    1.000000
   8.45000000E-02    1.00000000E+00   1.00000000E+00 
SP   1    1.000000
   2.54518072E-02    1.00000000E+00   1.00000000E+00 
D    1    1.000000
   1.29200000E+00    1.00000000E+00 

9    0
S    1    1.000000
   6.29348000E+03    1.96979000E-03 
S    1    1.000000
   9.49044000E+02    1.49613000E-02 
S    1    1.000000
   2.18776000E+02    7.35006000E-02 
S    1    1.000000
   6.36916000E+01    2.48937000E-01 
S    1    1.000000
   1.88282000E+01    6.02460000E-01 
S    1    1.000000
   2.72023000E+00    2.56202000E-01 
SP   3    1.000000
   3.06331000E+01    1.11906000E-01   3.83119000E-02 
   7.02614000E+00    9.21666000E-01   2.37403000E-01 
   2.11205000E+00   -2.56919000E-03   8.17592000E-01 
SP   1    1.000000
   6.84009000E-01    1.00000000E+00   1.00000000E+00 
SP   1    1.000000
   2.00878000E-01    1.00000000E+00   1.00000000E+00 
SP   1    1.000000
   6.39000000E-02    1.00000000E+00   1.00000000E+00 
SP   1    1.000000
   1.92469880E-02    1.00000000E+00   1.00000000E+00 
D    1    1.000000
   9.13000000E-01    1.00000000E+00 

10    0
S    1    1.000000
   6.29348000E+03    1.96979000E-03 
S    1    1.000000
   9.49044000E+02    1.49613000E-02 
S    1    1.000000
   2.18776000E+02    7.35006000E-02 
S    1    1.000000
   6.36916000E+01    2.48937000E-01 
S    1    1.000000
   1.88282000E+01    6.02460000E-01 
S    1    1.000000
   2.72023000E+00    2.56202000E-01 
SP   3    1.000000
   3.06331000E+01    1.11906000E-01   3.83119000E-02 
   7.02614000E+00    9.21666000E-01   2.37403000E-01 
   2.11205000E+00   -2.56919000E-03   8.17592000E-01 
SP   1    1.000000
   6.84009000E-01    1.00000000E+00   1.00000000E+00 
SP   1    1.000000
   2.00878000E-01    1.00000000E+00   1.00000000E+00 
SP   1    1.000000
   6.39000000E-02    1.00000000E+00   1.00000000E+00 
SP   1    1.000000
   1.92469880E-02    1.00000000E+00   1.00000000E+00 
D    1    1.000000
   9.13000000E-01    1.00000000E+00 

11    0
S    1    1.000000
   4.56324000E+03    1.96665000E-03 
S    1    1.000000
   6.82024000E+02    1.52306000E-02 
S    1    1.000000
   1.54973000E+02    7.61269000E-02 
S    1    1.000000
   4.44553000E+01    2.60801000E-01 
S    1    1.000000
   1.30290000E+01    6.16462000E-01 
S    1    1.000000
   1.82773000E+00    2.21006000E-01 
SP   3    1.000000
   2.09642000E+01    1.14660000E-01   4.02487000E-02 
   4.80331000E+00    9.19999000E-01   2.37594000E-01 
   1.45933000E+00   -3.03068000E-03   8.15854000E-01 
SP   1    1.000000
   4.83456000E-01    1.00000000E+00   1.00000000E+00 
SP   1    1.000000
   1.45585000E-01    1.00000000E+00   1.00000000E+00 
SP   1    1.000000
   4.38000000E-02    1.00000000E+00   1.00000000E+00 
SP   1    1.000000
   1.31927711E-02    1.00000000E+00   1.00000000E+00 
D    1    1.000000
   6.26000000E-01    1.00000000E+00 

12    0
S    3    1.000000
   3.38650000E+01    2.54938000E-02 
   5.09479000E+00    1.90373000E-01 
   1.15879000E+00    8.52161000E-01 
S    1    1.000000
   3.25840000E-01    1.00000000E+00 
S    1    1.000000
   1.02741000E-01    1.00000000E+00 
S    1    1.000000
   3.60000000E-02    1.00000000E+00 
P    1    1.000000
   7.50000000E-01    1.00000000E+00 

[MO]
Sym=X
Ene=0.929288
Spin=Alpha
Occup=1
1    -2.34130606e-07
2    -1.51827781e-06
3    -3.87434024e-06
4    -2.238988e-05
5    -6.70126569e-05
6    1.73087954e-05
7    -1.89697693e-05
8    -1.79234681e-05
9    -7.32245401e-16
10    0.000147866046
11    0.000141756135
12    0.00012238315
13    -4.73087893e-15
14    3.43133067e-05
15    -9.27768757e-05
16    0.000155621899
17    2.08042757e-15
18    -0.0017526542
19    -5.56920426e-05
20    -0.000518497368
21    -2.91428727e-14
22    -8.10939762e-05
23    3.70858124e-06
24    -9.65508074e-05
25    -5.20511244e-14
26    8.58732182e-05
27    7.48459388e-16
28    -3.51964992e-06
29    -1.38713316e-15
30    1.35727209e-05
31    1.20981291e-05
32    -5.40752698e-05
33    0.000276933803
34    0.000396171252
35    6.35266059e-07
36    -3.46765987e-06
37    6.63673933e-16
38    5.09341162e-07
39    9.03025593e-05
40    -3.14895214e-05
41    0.000120146191
42    1.74364021e-05
43    1.85822956e-05
44    -7.00603525e-16
45    3.5971697e-05
46    3.32608415e-05
47    1.18075609e-05
48    -0.000357351687
49    1.32198316e-07
50    -4.03449237e-05
51    1.01405909e-15
52    3.60072517e-07
53    2.8203431e-06
54    1.38353719e-05
55    4.84047849e-05
56    0.000105358109
57    3.57206536e-07
58    0.000174544499
59    -2.00722656e-05
60    -5.33110052e-08
61    2.66233011e-15
62    6.89991993e-05
63    6.31136296e-05
64    -6.54461338e-06
65    7.43121128e-15
66    4.22227483e-05
67    -0.00034918838
68    7.7655532e-05
69    4.68144426e-15
70    0.000852972545
71    1.82164056e-05
72    -0.000386584875
73    -1.77886408e-14
74    -0.000116841212
75    -8.44103884e-05
76    -1.39004154e-05
77    -7.55596008e-15
78    1.19531181e-06
79    1.03485543e-15
80    -5.37712132e-07
81    -7.84520364e-16
82    4.74357378e-05
83    -1.62799575e-09
84    -1.60320586e-09
85    -8.63045743e-08
86    -1.225532e-10
87    -2.8001613e-06
88    -1.052377e-05
89    5.38606745e-06
90    -1.05866204e-06
91    5.55728219e-07
92    2.66111074e-15
93    2.93511831e-05
94    1.94311446e-05
95    -4.52824037e-07
96    4.73678816e-15
97    -0.000116034238
98    -6.21480919e-05
99    5.81475855e-05
100    4.53317921e-15
101    -0.000607325587
102    -0.00020681063
103    4.17759152e-05
104    1.13085527e-14
105    5.14610064e-05
106    8.62869624e-05
107    0.000220925959
108    -8.67362101e-15
109    5.08124983e-06
110    1.62677426e-16
111    1.74247606e-06
112    7.64296782e-16
113    5.71857329e-06
114    0.00110962613
115    0.00859013471
116    0.0428528242
117    0.147119579
118    0.347570151
119    0.126271104
120    0.465619147
121    -0.000589611794
122    0.000337775728
123    4.33574513e-16
124    0.00138345591
125    0.000624128115
126    -0.000112672124
127    1.64354383e-15
128    0.00216822346
129    -0.000366963718
130    0.000281917001
131    -9.88501097e-17
132    -0.00261176141
133    0.000393912908
134    0.00240953262
135    -3.33360112e-14
136    -0.000329328088
137    -6.72815728e-05
138    -5.02020667e-05
139    -9.73220842e-16
140    0.000286462426
141    1.10832791e-15
142    -0.000429192423
143    -4.37571679e-16
144    5.13055761e-06
145    -3.75192916e-07
146    -2.74190713e-06
147    -1.4439546e-05
148    -4.59075015e-05
149    -0.00014060591
150    -0.000201727405
151    -0.00018681655
152    -0.000205029876
153    -0.00013501266
154    1.14575365e-15
155    0.000658470604
156    -0.000577291471
157    -0.000378072686
158    1.84185243e-16
159    -0.000309839738
160    0.000273996983
161    0.000140257154
162    -3.204654e-16
163    -0.000531338351
164    -4.22681002e-05
165    -0.000143602417
166    8.14422017e-15
167    -0.00255686468
168    0.000618672542
169    6.28832042e-05
170    -9.77296059e-15
171    0.000263602457
172    -2.13309647e-17
173    -0.000120970578
174    -2.29327323e-16
175    0.000117104173
176    -2.81862564e-07
177    -1.98557208e-06
178    -1.09898879e-05
179    -3.29157131e-05
180    -0.000121953065
181    -0.000236794466
182    -6.20817668e-05
183    5.29093867e-05
184    -4.17549399e-05
185    7.22496764e-16
186    0.000546104604
187    0.000626619663
188    -0.000300944139
189    6.08586463e-15
190    -0.000204084293
191    -0.000274884997
192    -7.8878126e-06
193    -2.57774301e-15
194    -0.00115910972
195    -0.000917837616
196    0.00018831887
197    2.82106863e-14
198    0.000786200199
199    0.000937783782
200    8.63694686e-05
201    1.35792776e-14
202    -0.000244570257
203    -3.97560907e-17
204    -9.53818178e-05
205    -4.66523815e-16
206    0.000194672637
207    8.89207885e-10
208    5.25282532e-08
209    -7.1789414e-08
210    1.0243742e-06
211    -9.04466991e-06
212    -4.28864395e-05
213    2.73299233e-05
214    -8.22226085e-06
215    -1.35486078e-06
216    -1.30809237e-17
217    9.00675395e-05
218    3.25895368e-05
219    6.90573762e-06
220    2.56931117e-15
221    -0.00013994453
222    -6.96312067e-05
223    -1.24235773e-05
224    -1.58018889e-15
225    -0.000161115971
226    0.00053245033
227    9.00918451e-05
228    1.28865249e-14
229    0.000405015948
230    -7.86271465e-05
231    0.000369515873
232    4.57593192e-14
233    -1.11330128e-05
234    1.19149613e-15
235    -3.38235814e-06
236    -4.89368397e-16
237    -1.61823874e-06
238    8.41322061e-06
239    6.50855346e-05
240    0.000324913341
241    0.00111400984
242    0.00263938192
243    0.000935646669
244    0.00347534476
245    -7.95252065e-06
246    9.10373745e-05
247    -1.69365583e-15
248    0.000322357005
249    9.13684253e-05
250    0.000517285967
251    -2.88614182e-15
252    -0.000495139977
253    0.000114823239
254    -0.000399157935
255    -4.81257937e-15
256    0.00610625696
257    -0.000262138087
258    0.0014061455
259    2.65201402e-14
260    0.000437563386
261    -4.66418699e-05
262    0.000126418935
263    3.01497791e-14
264    4.5359187e-05
265    8.80938758e-16
266    -1.06805162e-06
267    3.05671266e-16
268    -0.000308336654
269    3.34749472e-05
270    0.000104582344
271    -0.000222347982
272    0.000232145154
273    -4.53721123e-05
274    7.97563459e-05
275    -1.28946452e-15
[5D]