[Molden Format]
[Atoms] (Angs)
  C      1    6     -0.00714236     -1.70213747     -0.00000000
  H      2    1     -2.06882847     -1.44022412      0.00000000
  H      3    1     -0.12337987     -2.77567521      0.00000000
  H      4    1      0.04651892      1.98813947     -0.00000000
  C      5    6     -1.21953563      0.40211669      0.00000000
  O      6    8     -2.25921553      1.03043814      0.00000000
  C      7    6      1.28797806      0.34644937     -0.00000000
  O      8    8      2.31273661      1.00537216     -0.00000000
  N      9    7      0.03446295      0.97739857     -0.00000000
  N     10    7     -1.17287765     -0.98229824      0.00000000
  C     11    6      1.20107039     -1.10433419     -0.00000000
  H     12    1      2.11220096     -1.67699125     -0.00000000
[GTO]
1    0
S    1    1.000000
   4.56324000E+03    1.96665000E-03 
S    1    1.000000
   6.82024000E+02    1.52306000E-02 
S    1    1.000000
   1.54973000E+02    7.61269000E-02 
S    1    1.000000
   4.44553000E+01    2.60801000E-01 
S    1    1.000000
   1.30290000E+01    6.16462000E-01 
S    1    1.000000
   1.82773000E+00    2.21006000E-01 
SP   3    1.000000
   2.09642000E+01    1.14660000E-01   4.02487000E-02 
   4.80331000E+00    9.19999000E-01   2.37594000E-01 
   1.45933000E+00   -3.03068000E-03   8.15854000E-01 
SP   1    1.000000
   4.83456000E-01    1.00000000E+00   1.00000000E+00 
SP   1    1.000000
   1.45585000E-01    1.00000000E+00   1.00000000E+00 
SP   1    1.000000
   4.38000000E-02    1.00000000E+00   1.00000000E+00 
SP   1    1.000000
   1.31927711E-02    1.00000000E+00   1.00000000E+00 
D    1    1.000000
   6.26000000E-01    1.00000000E+00 

2    0
S    3    1.000000
   3.38650000E+01    2.54938000E-02 
   5.09479000E+00    1.90373000E-01 
   1.15879000E+00    8.52161000E-01 
S    1    1.000000
   3.25840000E-01    1.00000000E+00 
S    1    1.000000
   1.02741000E-01    1.00000000E+00 
S    1    1.000000
   3.60000000E-02    1.00000000E+00 
P    1    1.000000
   7.50000000E-01    1.00000000E+00 

3    0
S    3    1.000000
   3.38650000E+01    2.54938000E-02 
   5.09479000E+00    1.90373000E-01 
   1.15879000E+00    8.52161000E-01 
S    1    1.000000
   3.25840000E-01    1.00000000E+00 
S    1    1.000000
   1.02741000E-01    1.00000000E+00 
S    1    1.000000
   3.60000000E-02    1.00000000E+00 
P    1    1.000000
   7.50000000E-01    1.00000000E+00 

4    0
S    3    1.000000
   3.38650000E+01    2.54938000E-02 
   5.09479000E+00    1.90373000E-01 
   1.15879000E+00    8.52161000E-01 
S    1    1.000000
   3.25840000E-01    1.00000000E+00 
S    1    1.000000
   1.02741000E-01    1.00000000E+00 
S    1    1.000000
   3.60000000E-02    1.00000000E+00 
P    1    1.000000
   7.50000000E-01    1.00000000E+00 

5    0
S    1    1.000000
   4.56324000E+03    1.96665000E-03 
S    1    1.000000
   6.82024000E+02    1.52306000E-02 
S    1    1.000000
   1.54973000E+02    7.61269000E-02 
S    1    1.000000
   4.44553000E+01    2.60801000E-01 
S    1    1.000000
   1.30290000E+01    6.16462000E-01 
S    1    1.000000
   1.82773000E+00    2.21006000E-01 
SP   3    1.000000
   2.09642000E+01    1.14660000E-01   4.02487000E-02 
   4.80331000E+00    9.19999000E-01   2.37594000E-01 
   1.45933000E+00   -3.03068000E-03   8.15854000E-01 
SP   1    1.000000
   4.83456000E-01    1.00000000E+00   1.00000000E+00 
SP   1    1.000000
   1.45585000E-01    1.00000000E+00   1.00000000E+00 
SP   1    1.000000
   4.38000000E-02    1.00000000E+00   1.00000000E+00 
SP   1    1.000000
   1.31927711E-02    1.00000000E+00   1.00000000E+00 
D    1    1.000000
   6.26000000E-01    1.00000000E+00 

6    0
S    1    1.000000
   8.58850000E+03    1.89515000E-03 
S    1    1.000000
   1.29723000E+03    1.43859000E-02 
S    1    1.000000
   2.99296000E+02    7.07320000E-02 
S    1    1.000000
   8.73771000E+01    2.40001000E-01 
S    1    1.000000
   2.56789000E+01    5.94797000E-01 
S    1    1.000000
   3.74004000E+00    2.80802000E-01 
SP   3    1.000000
   4.21175000E+01    1.13889000E-01   3.65114000E-02 
   9.62837000E+00    9.20811000E-01   2.37153000E-01 
   2.85332000E+00   -3.27447000E-03   8.19702000E-01 
SP   1    1.000000
   9.05661000E-01    1.00000000E+00   1.00000000E+00 
SP   1    1.000000
   2.55611000E-01    1.00000000E+00   1.00000000E+00 
SP   1    1.000000
   8.45000000E-02    1.00000000E+00   1.00000000E+00 
SP   1    1.000000
   2.54518072E-02    1.00000000E+00   1.00000000E+00 
D    1    1.000000
   1.29200000E+00    1.00000000E+00 

7    0
S    1    1.000000
   4.56324000E+03    1.96665000E-03 
S    1    1.000000
   6.82024000E+02    1.52306000E-02 
S    1    1.000000
   1.54973000E+02    7.61269000E-02 
S    1    1.000000
   4.44553000E+01    2.60801000E-01 
S    1    1.000000
   1.30290000E+01    6.16462000E-01 
S    1    1.000000
   1.82773000E+00    2.21006000E-01 
SP   3    1.000000
   2.09642000E+01    1.14660000E-01   4.02487000E-02 
   4.80331000E+00    9.19999000E-01   2.37594000E-01 
   1.45933000E+00   -3.03068000E-03   8.15854000E-01 
SP   1    1.000000
   4.83456000E-01    1.00000000E+00   1.00000000E+00 
SP   1    1.000000
   1.45585000E-01    1.00000000E+00   1.00000000E+00 
SP   1    1.000000
   4.38000000E-02    1.00000000E+00   1.00000000E+00 
SP   1    1.000000
   1.31927711E-02    1.00000000E+00   1.00000000E+00 
D    1    1.000000
   6.26000000E-01    1.00000000E+00 

8    0
S    1    1.000000
   8.58850000E+03    1.89515000E-03 
S    1    1.000000
   1.29723000E+03    1.43859000E-02 
S    1    1.000000
   2.99296000E+02    7.07320000E-02 
S    1    1.000000
   8.73771000E+01    2.40001000E-01 
S    1    1.000000
   2.56789000E+01    5.94797000E-01 
S    1    1.000000
   3.74004000E+00    2.80802000E-01 
SP   3    1.000000
   4.21175000E+01    1.13889000E-01   3.65114000E-02 
   9.62837000E+00    9.20811000E-01   2.37153000E-01 
   2.85332000E+00   -3.27447000E-03   8.19702000E-01 
SP   1    1.000000
   9.05661000E-01    1.00000000E+00   1.00000000E+00 
SP   1    1.000000
   2.55611000E-01    1.00000000E+00   1.00000000E+00 
SP   1    1.000000
   8.45000000E-02    1.00000000E+00   1.00000000E+00 
SP   1    1.000000
   2.54518072E-02    1.00000000E+00   1.00000000E+00 
D    1    1.000000
   1.29200000E+00    1.00000000E+00 

9    0
S    1    1.000000
   6.29348000E+03    1.96979000E-03 
S    1    1.000000
   9.49044000E+02    1.49613000E-02 
S    1    1.000000
   2.18776000E+02    7.35006000E-02 
S    1    1.000000
   6.36916000E+01    2.48937000E-01 
S    1    1.000000
   1.88282000E+01    6.02460000E-01 
S    1    1.000000
   2.72023000E+00    2.56202000E-01 
SP   3    1.000000
   3.06331000E+01    1.11906000E-01   3.83119000E-02 
   7.02614000E+00    9.21666000E-01   2.37403000E-01 
   2.11205000E+00   -2.56919000E-03   8.17592000E-01 
SP   1    1.000000
   6.84009000E-01    1.00000000E+00   1.00000000E+00 
SP   1    1.000000
   2.00878000E-01    1.00000000E+00   1.00000000E+00 
SP   1    1.000000
   6.39000000E-02    1.00000000E+00   1.00000000E+00 
SP   1    1.000000
   1.92469880E-02    1.00000000E+00   1.00000000E+00 
D    1    1.000000
   9.13000000E-01    1.00000000E+00 

10    0
S    1    1.000000
   6.29348000E+03    1.96979000E-03 
S    1    1.000000
   9.49044000E+02    1.49613000E-02 
S    1    1.000000
   2.18776000E+02    7.35006000E-02 
S    1    1.000000
   6.36916000E+01    2.48937000E-01 
S    1    1.000000
   1.88282000E+01    6.02460000E-01 
S    1    1.000000
   2.72023000E+00    2.56202000E-01 
SP   3    1.000000
   3.06331000E+01    1.11906000E-01   3.83119000E-02 
   7.02614000E+00    9.21666000E-01   2.37403000E-01 
   2.11205000E+00   -2.56919000E-03   8.17592000E-01 
SP   1    1.000000
   6.84009000E-01    1.00000000E+00   1.00000000E+00 
SP   1    1.000000
   2.00878000E-01    1.00000000E+00   1.00000000E+00 
SP   1    1.000000
   6.39000000E-02    1.00000000E+00   1.00000000E+00 
SP   1    1.000000
   1.92469880E-02    1.00000000E+00   1.00000000E+00 
D    1    1.000000
   9.13000000E-01    1.00000000E+00 

11    0
S    1    1.000000
   4.56324000E+03    1.96665000E-03 
S    1    1.000000
   6.82024000E+02    1.52306000E-02 
S    1    1.000000
   1.54973000E+02    7.61269000E-02 
S    1    1.000000
   4.44553000E+01    2.60801000E-01 
S    1    1.000000
   1.30290000E+01    6.16462000E-01 
S    1    1.000000
   1.82773000E+00    2.21006000E-01 
SP   3    1.000000
   2.09642000E+01    1.14660000E-01   4.02487000E-02 
   4.80331000E+00    9.19999000E-01   2.37594000E-01 
   1.45933000E+00   -3.03068000E-03   8.15854000E-01 
SP   1    1.000000
   4.83456000E-01    1.00000000E+00   1.00000000E+00 
SP   1    1.000000
   1.45585000E-01    1.00000000E+00   1.00000000E+00 
SP   1    1.000000
   4.38000000E-02    1.00000000E+00   1.00000000E+00 
SP   1    1.000000
   1.31927711E-02    1.00000000E+00   1.00000000E+00 
D    1    1.000000
   6.26000000E-01    1.00000000E+00 

12    0
S    3    1.000000
   3.38650000E+01    2.54938000E-02 
   5.09479000E+00    1.90373000E-01 
   1.15879000E+00    8.52161000E-01 
S    1    1.000000
   3.25840000E-01    1.00000000E+00 
S    1    1.000000
   1.02741000E-01    1.00000000E+00 
S    1    1.000000
   3.60000000E-02    1.00000000E+00 
P    1    1.000000
   7.50000000E-01    1.00000000E+00 

[MO]
Sym=X
Ene=0.91965
Spin=Alpha
Occup=1
1    0.00857947468
2    0.0427988415
3    0.146936387
4    0.347128246
5    0.126359231
6    0.464943504
7    -0.000690455458
8    0.00106362679
9    1.13744778e-16
10    0.00142313301
11    0.000763314009
12    -0.00083501723
13    4.03111068e-15
14    0.00162195213
15    -0.000140123452
16    0.00133192292
17    -6.2541762e-15
18    0.00197518835
19    -0.000407615545
20    0.00178556232
21    9.37653175e-14
22    -0.000376847093
23    0.000217578735
24    -4.60592654e-05
25    -6.16465215e-14
26    0.000342158605
27    -5.71026129e-16
28    -0.000503908494
29    3.06795217e-16
30    -0.000134624395
31    2.42879939e-05
32    0.000166705185
33    -0.000296362186
34    -0.000505102584
35    7.06420867e-05
36    1.63153834e-05
37    -1.8520142e-17
38    0.000305923169
39    7.9818429e-05
40    0.000932386647
41    0.000671452984
42    3.01126565e-05
43    0.000125884716
44    6.78695855e-16
45    1.73864628e-05
46    -7.28938141e-05
47    0.000379545347
48    0.000411336047
49    5.09657638e-06
50    7.2826722e-06
51    3.52990509e-16
52    2.22734992e-07
53    1.75063389e-06
54    8.54806478e-06
55    3.00330494e-05
56    6.28842895e-05
57    -1.9826906e-05
58    0.000116448431
59    -2.21396659e-06
60    1.80417179e-05
61    9.58940852e-16
62    0.000117396673
63    7.49949144e-06
64    -7.09894236e-05
65    -2.38831642e-15
66    0.000236611257
67    -0.000854925551
68    0.000485478314
69    2.70902969e-15
70    0.000430241541
71    -0.000335780955
72    0.000874536385
73    1.04310668e-13
74    0.00112646037
75    0.000251829494
76    -6.87440634e-06
77    8.44379678e-14
78    -1.09476563e-05
79    -2.4186552e-16
80    8.71467523e-06
81    -5.8673164e-17
82    -4.32638899e-05
83    -2.93809799e-09
84    1.09041539e-08
85    -1.86890864e-07
86    2.6254286e-07
87    -8.10378457e-06
88    -3.3157094e-05
89    1.86543947e-05
90    -4.65197546e-06
91    2.70637696e-06
92    1.41083879e-16
93    9.03764161e-05
94    3.10893459e-05
95    -3.02400594e-05
96    -8.37746634e-16
97    -0.000414664719
98    -0.000196550503
99    0.000124392258
100    3.94627429e-15
101    -0.00121859207
102    -0.000200683755
103    0.00012802261
104    -1.03456904e-14
105    -0.00119395901
106    -0.000297358911
107    -9.74456957e-06
108    -2.6574198e-14
109    -1.09325566e-06
110    -5.94149111e-16
111    1.22714571e-06
112    1.37245579e-16
113    -5.16338882e-06
114    -3.8584582e-07
115    -2.92299218e-06
116    -1.50470765e-05
117    -4.98850187e-05
118    -0.000135202619
119    -0.000123043592
120    -0.000120535074
121    5.21544134e-06
122    2.53554456e-05
123    4.32019505e-16
124    0.000172363361
125    -2.87736312e-05
126    -0.00017997274
127    1.25668479e-15
128    0.000159396661
129    4.66887032e-05
130    -4.8435454e-06
131    -2.97180918e-15
132    -0.000126896044
133    0.000596870655
134    0.000538242778
135    1.08671923e-13
136    -2.163771e-05
137    0.000226710476
138    -0.000108488991
139    -2.86757246e-14
140    3.64618523e-05
141    -2.09286329e-16
142    -8.11528583e-06
143    3.21417863e-16
144    -8.47074241e-05
145    -7.4463184e-10
146    2.14457046e-09
147    -4.61453595e-08
148    5.52737066e-08
149    -1.89701715e-06
150    -7.56623823e-06
151    4.18289092e-06
152    2.48068799e-06
153    4.79163863e-06
154    1.26573793e-15
155    1.68255765e-05
156    -1.75715208e-05
157    -2.9671235e-05
158    -1.75628768e-15
159    1.01740135e-05
160    4.71882223e-05
161    3.63379313e-05
162    8.99772631e-15
163    -0.000392939116
164    6.09469179e-06
165    -1.49557411e-07
166    -1.75649159e-14
167    -0.000511848649
168    0.000106534034
169    -6.5528129e-05
170    6.48356712e-15
171    5.73690665e-06
172    -1.57832787e-16
173    -8.63347677e-07
174    -3.57866259e-16
175    -7.89238444e-06
176    2.28748932e-09
177    6.33851137e-08
178    -1.92563538e-08
179    1.20742609e-06
180    -8.66700057e-06
181    -4.27055805e-05
182    2.84493224e-05
183    -1.12490187e-06
184    9.452792e-06
185    2.02484811e-15
186    7.73174147e-05
187    2.32580356e-06
188    -3.43468292e-05
189    -5.20757264e-15
190    0.000163359125
191    -4.39897682e-05
192    -3.67646453e-05
193    2.01132488e-14
194    0.000614091869
195    0.000101999996
196    -0.0010165234
197    -7.03797824e-14
198    0.00105208532
199    -6.94767858e-05
200    -0.000189391008
201    -6.78757256e-14
202    2.56689842e-06
203    -1.89294777e-16
204    -1.34380921e-06
205    -5.24061059e-17
206    6.25962146e-06
207    -3.19241907e-07
208    -2.26401667e-06
209    -1.24121315e-05
210    -3.76365293e-05
211    -0.000136148096
212    -0.000273598422
213    -7.52137434e-05
214    6.88049909e-05
215    -4.23130961e-05
216    3.401008e-15
217    0.000649773926
218    0.000759866442
219    -0.000437534427
220    -6.60993361e-15
221    -9.48229829e-05
222    4.78813713e-05
223    0.000145275697
224    2.36266658e-14
225    -0.00140291217
226    -0.00100635347
227    -5.64747242e-05
228    -7.13800786e-14
229    -0.000306168177
230    -0.000308599453
231    -0.000216358969
232    -2.60717979e-14
233    -0.000335051621
234    -4.11408606e-16
235    -0.000121837915
236    3.01763407e-16
237    0.000196035328
238    5.26766024e-05
239    0.000407686007
240    0.00203437381
241    0.00698127436
242    0.0165211451
243    0.00609040877
244    0.021948196
245    -0.000159626182
246    -6.35369163e-05
247    1.21837559e-15
248    0.000452180023
249    -0.000462889281
250    -0.000198534664
251    -1.03431585e-15
252    -0.000963604606
253    0.000633706683
254    -0.000193821174
255    1.3962227e-14
256    8.36153088e-05
257    0.000424268054
258    -0.00104251506
259    -9.94349345e-14
260    -0.000733824966
261    -9.97492489e-05
262    -0.00012977646
263    7.12742767e-14
264    0.000244027839
265    1.30637342e-16
266    4.44836197e-05
267    -6.37537558e-16
268    0.0002230926
269    4.98712131e-05
270    0.000127973668
271    -0.000439382718
272    -0.000691933915
273    -0.000126369839
274    2.11891803e-06
275    1.12175804e-16
[5D]