[Molden Format]
[Atoms] (Angs)
  C      1    6     -0.00714236     -1.70213747     -0.00000000
  H      2    1     -2.06882847     -1.44022412      0.00000000
  H      3    1     -0.12337987     -2.77567521      0.00000000
  H      4    1      0.04651892      1.98813947     -0.00000000
  C      5    6     -1.21953563      0.40211669      0.00000000
  O      6    8     -2.25921553      1.03043814      0.00000000
  C      7    6      1.28797806      0.34644937     -0.00000000
  O      8    8      2.31273661      1.00537216     -0.00000000
  N      9    7      0.03446295      0.97739857     -0.00000000
  N     10    7     -1.17287765     -0.98229824      0.00000000
  C     11    6      1.20107039     -1.10433419     -0.00000000
  H     12    1      2.11220096     -1.67699125     -0.00000000
[GTO]
1    0
S    1    1.000000
   4.56324000E+03    1.96665000E-03 
S    1    1.000000
   6.82024000E+02    1.52306000E-02 
S    1    1.000000
   1.54973000E+02    7.61269000E-02 
S    1    1.000000
   4.44553000E+01    2.60801000E-01 
S    1    1.000000
   1.30290000E+01    6.16462000E-01 
S    1    1.000000
   1.82773000E+00    2.21006000E-01 
SP   3    1.000000
   2.09642000E+01    1.14660000E-01   4.02487000E-02 
   4.80331000E+00    9.19999000E-01   2.37594000E-01 
   1.45933000E+00   -3.03068000E-03   8.15854000E-01 
SP   1    1.000000
   4.83456000E-01    1.00000000E+00   1.00000000E+00 
SP   1    1.000000
   1.45585000E-01    1.00000000E+00   1.00000000E+00 
SP   1    1.000000
   4.38000000E-02    1.00000000E+00   1.00000000E+00 
SP   1    1.000000
   1.31927711E-02    1.00000000E+00   1.00000000E+00 
D    1    1.000000
   6.26000000E-01    1.00000000E+00 

2    0
S    3    1.000000
   3.38650000E+01    2.54938000E-02 
   5.09479000E+00    1.90373000E-01 
   1.15879000E+00    8.52161000E-01 
S    1    1.000000
   3.25840000E-01    1.00000000E+00 
S    1    1.000000
   1.02741000E-01    1.00000000E+00 
S    1    1.000000
   3.60000000E-02    1.00000000E+00 
P    1    1.000000
   7.50000000E-01    1.00000000E+00 

3    0
S    3    1.000000
   3.38650000E+01    2.54938000E-02 
   5.09479000E+00    1.90373000E-01 
   1.15879000E+00    8.52161000E-01 
S    1    1.000000
   3.25840000E-01    1.00000000E+00 
S    1    1.000000
   1.02741000E-01    1.00000000E+00 
S    1    1.000000
   3.60000000E-02    1.00000000E+00 
P    1    1.000000
   7.50000000E-01    1.00000000E+00 

4    0
S    3    1.000000
   3.38650000E+01    2.54938000E-02 
   5.09479000E+00    1.90373000E-01 
   1.15879000E+00    8.52161000E-01 
S    1    1.000000
   3.25840000E-01    1.00000000E+00 
S    1    1.000000
   1.02741000E-01    1.00000000E+00 
S    1    1.000000
   3.60000000E-02    1.00000000E+00 
P    1    1.000000
   7.50000000E-01    1.00000000E+00 

5    0
S    1    1.000000
   4.56324000E+03    1.96665000E-03 
S    1    1.000000
   6.82024000E+02    1.52306000E-02 
S    1    1.000000
   1.54973000E+02    7.61269000E-02 
S    1    1.000000
   4.44553000E+01    2.60801000E-01 
S    1    1.000000
   1.30290000E+01    6.16462000E-01 
S    1    1.000000
   1.82773000E+00    2.21006000E-01 
SP   3    1.000000
   2.09642000E+01    1.14660000E-01   4.02487000E-02 
   4.80331000E+00    9.19999000E-01   2.37594000E-01 
   1.45933000E+00   -3.03068000E-03   8.15854000E-01 
SP   1    1.000000
   4.83456000E-01    1.00000000E+00   1.00000000E+00 
SP   1    1.000000
   1.45585000E-01    1.00000000E+00   1.00000000E+00 
SP   1    1.000000
   4.38000000E-02    1.00000000E+00   1.00000000E+00 
SP   1    1.000000
   1.31927711E-02    1.00000000E+00   1.00000000E+00 
D    1    1.000000
   6.26000000E-01    1.00000000E+00 

6    0
S    1    1.000000
   8.58850000E+03    1.89515000E-03 
S    1    1.000000
   1.29723000E+03    1.43859000E-02 
S    1    1.000000
   2.99296000E+02    7.07320000E-02 
S    1    1.000000
   8.73771000E+01    2.40001000E-01 
S    1    1.000000
   2.56789000E+01    5.94797000E-01 
S    1    1.000000
   3.74004000E+00    2.80802000E-01 
SP   3    1.000000
   4.21175000E+01    1.13889000E-01   3.65114000E-02 
   9.62837000E+00    9.20811000E-01   2.37153000E-01 
   2.85332000E+00   -3.27447000E-03   8.19702000E-01 
SP   1    1.000000
   9.05661000E-01    1.00000000E+00   1.00000000E+00 
SP   1    1.000000
   2.55611000E-01    1.00000000E+00   1.00000000E+00 
SP   1    1.000000
   8.45000000E-02    1.00000000E+00   1.00000000E+00 
SP   1    1.000000
   2.54518072E-02    1.00000000E+00   1.00000000E+00 
D    1    1.000000
   1.29200000E+00    1.00000000E+00 

7    0
S    1    1.000000
   4.56324000E+03    1.96665000E-03 
S    1    1.000000
   6.82024000E+02    1.52306000E-02 
S    1    1.000000
   1.54973000E+02    7.61269000E-02 
S    1    1.000000
   4.44553000E+01    2.60801000E-01 
S    1    1.000000
   1.30290000E+01    6.16462000E-01 
S    1    1.000000
   1.82773000E+00    2.21006000E-01 
SP   3    1.000000
   2.09642000E+01    1.14660000E-01   4.02487000E-02 
   4.80331000E+00    9.19999000E-01   2.37594000E-01 
   1.45933000E+00   -3.03068000E-03   8.15854000E-01 
SP   1    1.000000
   4.83456000E-01    1.00000000E+00   1.00000000E+00 
SP   1    1.000000
   1.45585000E-01    1.00000000E+00   1.00000000E+00 
SP   1    1.000000
   4.38000000E-02    1.00000000E+00   1.00000000E+00 
SP   1    1.000000
   1.31927711E-02    1.00000000E+00   1.00000000E+00 
D    1    1.000000
   6.26000000E-01    1.00000000E+00 

8    0
S    1    1.000000
   8.58850000E+03    1.89515000E-03 
S    1    1.000000
   1.29723000E+03    1.43859000E-02 
S    1    1.000000
   2.99296000E+02    7.07320000E-02 
S    1    1.000000
   8.73771000E+01    2.40001000E-01 
S    1    1.000000
   2.56789000E+01    5.94797000E-01 
S    1    1.000000
   3.74004000E+00    2.80802000E-01 
SP   3    1.000000
   4.21175000E+01    1.13889000E-01   3.65114000E-02 
   9.62837000E+00    9.20811000E-01   2.37153000E-01 
   2.85332000E+00   -3.27447000E-03   8.19702000E-01 
SP   1    1.000000
   9.05661000E-01    1.00000000E+00   1.00000000E+00 
SP   1    1.000000
   2.55611000E-01    1.00000000E+00   1.00000000E+00 
SP   1    1.000000
   8.45000000E-02    1.00000000E+00   1.00000000E+00 
SP   1    1.000000
   2.54518072E-02    1.00000000E+00   1.00000000E+00 
D    1    1.000000
   1.29200000E+00    1.00000000E+00 

9    0
S    1    1.000000
   6.29348000E+03    1.96979000E-03 
S    1    1.000000
   9.49044000E+02    1.49613000E-02 
S    1    1.000000
   2.18776000E+02    7.35006000E-02 
S    1    1.000000
   6.36916000E+01    2.48937000E-01 
S    1    1.000000
   1.88282000E+01    6.02460000E-01 
S    1    1.000000
   2.72023000E+00    2.56202000E-01 
SP   3    1.000000
   3.06331000E+01    1.11906000E-01   3.83119000E-02 
   7.02614000E+00    9.21666000E-01   2.37403000E-01 
   2.11205000E+00   -2.56919000E-03   8.17592000E-01 
SP   1    1.000000
   6.84009000E-01    1.00000000E+00   1.00000000E+00 
SP   1    1.000000
   2.00878000E-01    1.00000000E+00   1.00000000E+00 
SP   1    1.000000
   6.39000000E-02    1.00000000E+00   1.00000000E+00 
SP   1    1.000000
   1.92469880E-02    1.00000000E+00   1.00000000E+00 
D    1    1.000000
   9.13000000E-01    1.00000000E+00 

10    0
S    1    1.000000
   6.29348000E+03    1.96979000E-03 
S    1    1.000000
   9.49044000E+02    1.49613000E-02 
S    1    1.000000
   2.18776000E+02    7.35006000E-02 
S    1    1.000000
   6.36916000E+01    2.48937000E-01 
S    1    1.000000
   1.88282000E+01    6.02460000E-01 
S    1    1.000000
   2.72023000E+00    2.56202000E-01 
SP   3    1.000000
   3.06331000E+01    1.11906000E-01   3.83119000E-02 
   7.02614000E+00    9.21666000E-01   2.37403000E-01 
   2.11205000E+00   -2.56919000E-03   8.17592000E-01 
SP   1    1.000000
   6.84009000E-01    1.00000000E+00   1.00000000E+00 
SP   1    1.000000
   2.00878000E-01    1.00000000E+00   1.00000000E+00 
SP   1    1.000000
   6.39000000E-02    1.00000000E+00   1.00000000E+00 
SP   1    1.000000
   1.92469880E-02    1.00000000E+00   1.00000000E+00 
D    1    1.000000
   9.13000000E-01    1.00000000E+00 

11    0
S    1    1.000000
   4.56324000E+03    1.96665000E-03 
S    1    1.000000
   6.82024000E+02    1.52306000E-02 
S    1    1.000000
   1.54973000E+02    7.61269000E-02 
S    1    1.000000
   4.44553000E+01    2.60801000E-01 
S    1    1.000000
   1.30290000E+01    6.16462000E-01 
S    1    1.000000
   1.82773000E+00    2.21006000E-01 
SP   3    1.000000
   2.09642000E+01    1.14660000E-01   4.02487000E-02 
   4.80331000E+00    9.19999000E-01   2.37594000E-01 
   1.45933000E+00   -3.03068000E-03   8.15854000E-01 
SP   1    1.000000
   4.83456000E-01    1.00000000E+00   1.00000000E+00 
SP   1    1.000000
   1.45585000E-01    1.00000000E+00   1.00000000E+00 
SP   1    1.000000
   4.38000000E-02    1.00000000E+00   1.00000000E+00 
SP   1    1.000000
   1.31927711E-02    1.00000000E+00   1.00000000E+00 
D    1    1.000000
   6.26000000E-01    1.00000000E+00 

12    0
S    3    1.000000
   3.38650000E+01    2.54938000E-02 
   5.09479000E+00    1.90373000E-01 
   1.15879000E+00    8.52161000E-01 
S    1    1.000000
   3.25840000E-01    1.00000000E+00 
S    1    1.000000
   1.02741000E-01    1.00000000E+00 
S    1    1.000000
   3.60000000E-02    1.00000000E+00 
P    1    1.000000
   7.50000000E-01    1.00000000E+00 

[MO]
Sym=X
Ene=0.943448
Spin=Alpha
Occup=1
1    0.00110814692
2    0.00857875556
3    0.0427952547
4    0.146924069
5    0.347099167
6    0.126348493
7    0.464904398
8    -0.000690163414
9    0.00106367113
10    1.13501147e-16
11    0.00142405914
12    0.000764450449
13    -0.000834311087
14    4.02639839e-15
15    0.00162190846
16    -0.000140204576
17    0.00133168053
18    -6.25684995e-15
19    0.00196954078
20    -0.000408102772
21    0.00178362677
22    9.38614096e-14
23    -0.00037731571
24    0.000217682751
25    -4.635648e-05
26    -6.17538001e-14
27    0.0003426911
28    -5.71939059e-16
29    -0.00050404472
30    3.0970271e-16
31    -0.000134236671
32    2.42962506e-05
33    0.000166760108
34    -0.000296394657
35    -0.000505066239
36    7.06621226e-05
37    1.63093744e-05
38    -2.13595058e-17
39    0.000305932929
40    7.99431565e-05
41    0.000931969069
42    0.000670916965
43    3.01776903e-05
44    0.000125962044
45    6.77976826e-16
46    1.74018536e-05
47    -7.28343724e-05
48    0.000379523922
49    0.000411392441
50    5.10255241e-06
51    7.26546146e-06
52    3.5232064e-16
53    2.26402614e-07
54    1.77905656e-06
55    8.68963918e-06
56    3.05199352e-05
57    6.4026637e-05
58    -1.94431778e-05
59    0.000118006787
60    -2.21857687e-06
61    1.80439731e-05
62    9.54853916e-16
63    0.000117481122
64    7.52341845e-06
65    -7.10062954e-05
66    -2.40185448e-15
67    0.000236359066
68    -0.000855351789
69    0.000485743017
70    2.70210565e-15
71    0.000431626094
72    -0.000335740795
73    0.000874276223
74    1.04437987e-13
75    0.00112711781
76    0.000251940708
77    -6.81048137e-06
78    8.45410185e-14
79    -1.09413096e-05
80    -2.41368892e-16
81    8.7168332e-06
82    -5.69582811e-17
83    -4.32609135e-05
84    -2.90773608e-09
85    1.1145901e-08
86    -1.85783645e-07
87    2.66601583e-07
88    -8.09658939e-06
89    -3.31634453e-05
90    1.86745425e-05
91    -4.65392436e-06
92    2.70688131e-06
93    1.36971871e-16
94    9.04062727e-05
95    3.11050485e-05
96    -3.02465799e-05
97    -8.43067598e-16
98    -0.000414798487
99    -0.000196615423
100    0.000124426736
101    3.93725163e-15
102    -0.00121917996
103    -0.000200821392
104    0.000128112733
105    -1.03672329e-14
106    -0.00119416898
107    -0.000297312197
108    -9.55917796e-06
109    -2.66249721e-14
110    -1.0940153e-06
111    -5.9339309e-16
112    1.22800728e-06
113    1.36694752e-16
114    -5.16171323e-06
115    -3.98415871e-07
116    -3.02023446e-06
117    -1.5532852e-05
118    -5.15513342e-05
119    -0.000139167379
120    -0.000124739738
121    -0.000125801708
122    5.21790964e-06
123    2.52219811e-05
124    4.35098157e-16
125    0.000173285689
126    -2.88546062e-05
127    -0.000181165726
128    1.26945879e-15
129    0.000159564858
130    4.69504562e-05
131    -4.46298143e-06
132    -2.97201665e-15
133    -0.000131861338
134    0.000598025863
135    0.000540166086
136    1.0880446e-13
137    -2.24896397e-05
138    0.000226819694
139    -0.00010864126
140    -2.8739346e-14
141    3.65710808e-05
142    -2.07652522e-16
143    -8.30747905e-06
144    3.25736722e-16
145    -8.53291811e-05
146    -6.74576953e-10
147    2.7128604e-09
148    -4.36042821e-08
149    6.48511874e-08
150    -1.88301333e-06
151    -7.59186602e-06
152    4.24149997e-06
153    2.48926639e-06
154    4.83093955e-06
155    1.27185761e-15
156    1.68860597e-05
157    -1.76114657e-05
158    -2.97273376e-05
159    -1.74955307e-15
160    1.01049293e-05
161    4.72502479e-05
162    3.63628752e-05
163    9.01499891e-15
164    -0.000393671134
165    6.19648563e-06
166    -1.41111918e-07
167    -1.75671948e-14
168    -0.000514449476
169    0.000107097187
170    -6.54017194e-05
171    6.49283233e-15
172    5.77664269e-06
173    -1.58243505e-16
174    -8.62850561e-07
175    -3.589948e-16
176    -7.92914806e-06
177    2.40723652e-09
178    6.43482836e-08
179    -1.48965869e-08
180    1.22361478e-06
181    -8.64142073e-06
182    -4.27434696e-05
183    2.85372057e-05
184    -1.15809385e-06
185    9.47081572e-06
186    2.02816665e-15
187    7.73882182e-05
188    2.42759854e-06
189    -3.43882481e-05
190    -5.21669874e-15
191    0.000163452727
192    -4.41202114e-05
193    -3.68937443e-05
194    2.0142551e-14
195    0.000614539189
196    0.00010187599
197    -0.00101666191
198    -7.04769075e-14
199    0.00105318895
200    -6.84846309e-05
201    -0.000189477096
202    -6.79413348e-14
203    2.52055571e-06
204    -1.88650536e-16
205    -1.34787954e-06
206    -4.99012902e-17
207    6.29339039e-06
208    -3.2060216e-07
209    -2.27432355e-06
210    -1.24629746e-05
211    -3.78077415e-05
212    -0.000136574973
213    -0.000273823483
214    -7.57549956e-05
215    6.87627761e-05
216    -4.22972743e-05
217    3.39937626e-15
218    0.000649817721
219    0.000759929611
220    -0.00043755374
221    -6.62601716e-15
222    -9.47595831e-05
223    4.79028407e-05
224    0.000145415576
225    2.36369335e-14
226    -0.00140211699
227    -0.0010061333
228    -5.64823739e-05
229    -7.14768476e-14
230    -0.000305510029
231    -0.000308866157
232    -0.000216019724
233    -2.60931352e-14
234    -0.000335067583
235    -4.12538425e-16
236    -0.000121837653
237    3.02258122e-16
238    0.000196071383
239    5.45773056e-05
240    0.000422400722
241    0.00210777433
242    0.0072332911
243    0.0171164656
244    0.00630932627
245    0.0227445941
246    -0.000160395111
247    -6.32524733e-05
248    1.22173591e-15
249    0.000456395882
250    -0.000462614276
251    -0.000198661063
252    -1.03585679e-15
253    -0.000963689738
254    0.000633172881
255    -0.000193560561
256    1.39830587e-14
257    9.39960255e-05
258    0.000422191278
259    -0.00104058765
260    -9.95529194e-14
261    -0.000733408791
262    -9.98445955e-05
263    -0.000129531809
264    7.1406507e-14
265    0.000244058272
266    1.32627708e-16
267    4.5154975e-05
268    -6.36239318e-16
269    0.000223171459
270    5.0548722e-05
271    0.000128874795
272    -0.000439162585
273    -0.000691067987
274    -0.00012687426
275    2.41307982e-06
276    1.13340035e-16
[5D]