[Molden Format]
[Atoms] (Angs)
  C      1    6     -0.00714236     -1.70213747     -0.00000000
  H      2    1     -2.06882847     -1.44022412      0.00000000
  H      3    1     -0.12337987     -2.77567521      0.00000000
  H      4    1      0.04651892      1.98813947     -0.00000000
  C      5    6     -1.21953563      0.40211669      0.00000000
  O      6    8     -2.25921553      1.03043814      0.00000000
  C      7    6      1.28797806      0.34644937     -0.00000000
  O      8    8      2.31273661      1.00537216     -0.00000000
  N      9    7      0.03446295      0.97739857     -0.00000000
  N     10    7     -1.17287765     -0.98229824      0.00000000
  C     11    6      1.20107039     -1.10433419     -0.00000000
  H     12    1      2.11220096     -1.67699125     -0.00000000
[GTO]
1    0
S    1    1.000000
   4.56324000E+03    1.96665000E-03 
S    1    1.000000
   6.82024000E+02    1.52306000E-02 
S    1    1.000000
   1.54973000E+02    7.61269000E-02 
S    1    1.000000
   4.44553000E+01    2.60801000E-01 
S    1    1.000000
   1.30290000E+01    6.16462000E-01 
S    1    1.000000
   1.82773000E+00    2.21006000E-01 
SP   3    1.000000
   2.09642000E+01    1.14660000E-01   4.02487000E-02 
   4.80331000E+00    9.19999000E-01   2.37594000E-01 
   1.45933000E+00   -3.03068000E-03   8.15854000E-01 
SP   1    1.000000
   4.83456000E-01    1.00000000E+00   1.00000000E+00 
SP   1    1.000000
   1.45585000E-01    1.00000000E+00   1.00000000E+00 
SP   1    1.000000
   4.38000000E-02    1.00000000E+00   1.00000000E+00 
SP   1    1.000000
   1.31927711E-02    1.00000000E+00   1.00000000E+00 
D    1    1.000000
   6.26000000E-01    1.00000000E+00 

2    0
S    3    1.000000
   3.38650000E+01    2.54938000E-02 
   5.09479000E+00    1.90373000E-01 
   1.15879000E+00    8.52161000E-01 
S    1    1.000000
   3.25840000E-01    1.00000000E+00 
S    1    1.000000
   1.02741000E-01    1.00000000E+00 
S    1    1.000000
   3.60000000E-02    1.00000000E+00 
P    1    1.000000
   7.50000000E-01    1.00000000E+00 

3    0
S    3    1.000000
   3.38650000E+01    2.54938000E-02 
   5.09479000E+00    1.90373000E-01 
   1.15879000E+00    8.52161000E-01 
S    1    1.000000
   3.25840000E-01    1.00000000E+00 
S    1    1.000000
   1.02741000E-01    1.00000000E+00 
S    1    1.000000
   3.60000000E-02    1.00000000E+00 
P    1    1.000000
   7.50000000E-01    1.00000000E+00 

4    0
S    3    1.000000
   3.38650000E+01    2.54938000E-02 
   5.09479000E+00    1.90373000E-01 
   1.15879000E+00    8.52161000E-01 
S    1    1.000000
   3.25840000E-01    1.00000000E+00 
S    1    1.000000
   1.02741000E-01    1.00000000E+00 
S    1    1.000000
   3.60000000E-02    1.00000000E+00 
P    1    1.000000
   7.50000000E-01    1.00000000E+00 

5    0
S    1    1.000000
   4.56324000E+03    1.96665000E-03 
S    1    1.000000
   6.82024000E+02    1.52306000E-02 
S    1    1.000000
   1.54973000E+02    7.61269000E-02 
S    1    1.000000
   4.44553000E+01    2.60801000E-01 
S    1    1.000000
   1.30290000E+01    6.16462000E-01 
S    1    1.000000
   1.82773000E+00    2.21006000E-01 
SP   3    1.000000
   2.09642000E+01    1.14660000E-01   4.02487000E-02 
   4.80331000E+00    9.19999000E-01   2.37594000E-01 
   1.45933000E+00   -3.03068000E-03   8.15854000E-01 
SP   1    1.000000
   4.83456000E-01    1.00000000E+00   1.00000000E+00 
SP   1    1.000000
   1.45585000E-01    1.00000000E+00   1.00000000E+00 
SP   1    1.000000
   4.38000000E-02    1.00000000E+00   1.00000000E+00 
SP   1    1.000000
   1.31927711E-02    1.00000000E+00   1.00000000E+00 
D    1    1.000000
   6.26000000E-01    1.00000000E+00 

6    0
S    1    1.000000
   8.58850000E+03    1.89515000E-03 
S    1    1.000000
   1.29723000E+03    1.43859000E-02 
S    1    1.000000
   2.99296000E+02    7.07320000E-02 
S    1    1.000000
   8.73771000E+01    2.40001000E-01 
S    1    1.000000
   2.56789000E+01    5.94797000E-01 
S    1    1.000000
   3.74004000E+00    2.80802000E-01 
SP   3    1.000000
   4.21175000E+01    1.13889000E-01   3.65114000E-02 
   9.62837000E+00    9.20811000E-01   2.37153000E-01 
   2.85332000E+00   -3.27447000E-03   8.19702000E-01 
SP   1    1.000000
   9.05661000E-01    1.00000000E+00   1.00000000E+00 
SP   1    1.000000
   2.55611000E-01    1.00000000E+00   1.00000000E+00 
SP   1    1.000000
   8.45000000E-02    1.00000000E+00   1.00000000E+00 
SP   1    1.000000
   2.54518072E-02    1.00000000E+00   1.00000000E+00 
D    1    1.000000
   1.29200000E+00    1.00000000E+00 

7    0
S    1    1.000000
   4.56324000E+03    1.96665000E-03 
S    1    1.000000
   6.82024000E+02    1.52306000E-02 
S    1    1.000000
   1.54973000E+02    7.61269000E-02 
S    1    1.000000
   4.44553000E+01    2.60801000E-01 
S    1    1.000000
   1.30290000E+01    6.16462000E-01 
S    1    1.000000
   1.82773000E+00    2.21006000E-01 
SP   3    1.000000
   2.09642000E+01    1.14660000E-01   4.02487000E-02 
   4.80331000E+00    9.19999000E-01   2.37594000E-01 
   1.45933000E+00   -3.03068000E-03   8.15854000E-01 
SP   1    1.000000
   4.83456000E-01    1.00000000E+00   1.00000000E+00 
SP   1    1.000000
   1.45585000E-01    1.00000000E+00   1.00000000E+00 
SP   1    1.000000
   4.38000000E-02    1.00000000E+00   1.00000000E+00 
SP   1    1.000000
   1.31927711E-02    1.00000000E+00   1.00000000E+00 
D    1    1.000000
   6.26000000E-01    1.00000000E+00 

8    0
S    1    1.000000
   8.58850000E+03    1.89515000E-03 
S    1    1.000000
   1.29723000E+03    1.43859000E-02 
S    1    1.000000
   2.99296000E+02    7.07320000E-02 
S    1    1.000000
   8.73771000E+01    2.40001000E-01 
S    1    1.000000
   2.56789000E+01    5.94797000E-01 
S    1    1.000000
   3.74004000E+00    2.80802000E-01 
SP   3    1.000000
   4.21175000E+01    1.13889000E-01   3.65114000E-02 
   9.62837000E+00    9.20811000E-01   2.37153000E-01 
   2.85332000E+00   -3.27447000E-03   8.19702000E-01 
SP   1    1.000000
   9.05661000E-01    1.00000000E+00   1.00000000E+00 
SP   1    1.000000
   2.55611000E-01    1.00000000E+00   1.00000000E+00 
SP   1    1.000000
   8.45000000E-02    1.00000000E+00   1.00000000E+00 
SP   1    1.000000
   2.54518072E-02    1.00000000E+00   1.00000000E+00 
D    1    1.000000
   1.29200000E+00    1.00000000E+00 

9    0
S    1    1.000000
   6.29348000E+03    1.96979000E-03 
S    1    1.000000
   9.49044000E+02    1.49613000E-02 
S    1    1.000000
   2.18776000E+02    7.35006000E-02 
S    1    1.000000
   6.36916000E+01    2.48937000E-01 
S    1    1.000000
   1.88282000E+01    6.02460000E-01 
S    1    1.000000
   2.72023000E+00    2.56202000E-01 
SP   3    1.000000
   3.06331000E+01    1.11906000E-01   3.83119000E-02 
   7.02614000E+00    9.21666000E-01   2.37403000E-01 
   2.11205000E+00   -2.56919000E-03   8.17592000E-01 
SP   1    1.000000
   6.84009000E-01    1.00000000E+00   1.00000000E+00 
SP   1    1.000000
   2.00878000E-01    1.00000000E+00   1.00000000E+00 
SP   1    1.000000
   6.39000000E-02    1.00000000E+00   1.00000000E+00 
SP   1    1.000000
   1.92469880E-02    1.00000000E+00   1.00000000E+00 
D    1    1.000000
   9.13000000E-01    1.00000000E+00 

10    0
S    1    1.000000
   6.29348000E+03    1.96979000E-03 
S    1    1.000000
   9.49044000E+02    1.49613000E-02 
S    1    1.000000
   2.18776000E+02    7.35006000E-02 
S    1    1.000000
   6.36916000E+01    2.48937000E-01 
S    1    1.000000
   1.88282000E+01    6.02460000E-01 
S    1    1.000000
   2.72023000E+00    2.56202000E-01 
SP   3    1.000000
   3.06331000E+01    1.11906000E-01   3.83119000E-02 
   7.02614000E+00    9.21666000E-01   2.37403000E-01 
   2.11205000E+00   -2.56919000E-03   8.17592000E-01 
SP   1    1.000000
   6.84009000E-01    1.00000000E+00   1.00000000E+00 
SP   1    1.000000
   2.00878000E-01    1.00000000E+00   1.00000000E+00 
SP   1    1.000000
   6.39000000E-02    1.00000000E+00   1.00000000E+00 
SP   1    1.000000
   1.92469880E-02    1.00000000E+00   1.00000000E+00 
D    1    1.000000
   9.13000000E-01    1.00000000E+00 

11    0
S    1    1.000000
   4.56324000E+03    1.96665000E-03 
S    1    1.000000
   6.82024000E+02    1.52306000E-02 
S    1    1.000000
   1.54973000E+02    7.61269000E-02 
S    1    1.000000
   4.44553000E+01    2.60801000E-01 
S    1    1.000000
   1.30290000E+01    6.16462000E-01 
S    1    1.000000
   1.82773000E+00    2.21006000E-01 
SP   3    1.000000
   2.09642000E+01    1.14660000E-01   4.02487000E-02 
   4.80331000E+00    9.19999000E-01   2.37594000E-01 
   1.45933000E+00   -3.03068000E-03   8.15854000E-01 
SP   1    1.000000
   4.83456000E-01    1.00000000E+00   1.00000000E+00 
SP   1    1.000000
   1.45585000E-01    1.00000000E+00   1.00000000E+00 
SP   1    1.000000
   4.38000000E-02    1.00000000E+00   1.00000000E+00 
SP   1    1.000000
   1.31927711E-02    1.00000000E+00   1.00000000E+00 
D    1    1.000000
   6.26000000E-01    1.00000000E+00 

12    0
S    3    1.000000
   3.38650000E+01    2.54938000E-02 
   5.09479000E+00    1.90373000E-01 
   1.15879000E+00    8.52161000E-01 
S    1    1.000000
   3.25840000E-01    1.00000000E+00 
S    1    1.000000
   1.02741000E-01    1.00000000E+00 
S    1    1.000000
   3.60000000E-02    1.00000000E+00 
P    1    1.000000
   7.50000000E-01    1.00000000E+00 

[MO]
Sym=X
Ene=0.955602
Spin=Alpha
Occup=1
1    2.05700499e-07
2    1.57968527e-06
3    7.96806202e-06
4    2.70380602e-05
5    6.80984776e-05
6    4.86413669e-05
7    7.32600647e-05
8    -1.7272912e-05
9    8.54503491e-06
10    -2.87487658e-15
11    -5.76079315e-05
12    9.19507579e-05
13    -3.0329152e-05
14    -6.68041698e-15
15    0.000192828932
16    -6.67788787e-05
17    8.27387252e-05
18    -4.68612262e-15
19    -0.00433041611
20    -0.000659692354
21    -0.00172875438
22    -1.73548428e-14
23    -0.000346417975
24    0.000240894117
25    -0.000152192859
26    -5.54940335e-14
27    6.07707392e-05
28    -5.96750682e-16
29    -1.64311868e-05
30    3.26087865e-16
31    -2.61174871e-07
32    -3.79423127e-05
33    1.18345679e-05
34    -4.25067467e-05
35    2.07201664e-05
36    -3.7717153e-05
37    -1.50715494e-05
38    -2.01788457e-15
39    -1.28918994e-05
40    -1.60720963e-09
41    -5.99076667e-07
42    -0.00115069289
43    6.82344707e-06
44    -9.07727037e-06
45    -1.37879142e-15
46    -3.14368427e-05
47    -5.26959101e-05
48    0.000179489223
49    -3.53812481e-06
50    1.94331691e-05
51    5.19453685e-05
52    1.79136472e-15
53    -0.00110965958
54    -0.00859038369
55    -0.0428542183
56    -0.147125311
57    -0.347588968
58    -0.126292229
59    -0.465602859
60    -0.000573050787
61    0.000735995354
62    1.14545367e-16
63    -0.00145969421
64    0.000630523505
65    -0.000703653338
66    3.96054059e-15
67    -0.00187302119
68    -0.000480620595
69    0.000371356215
70    -6.00189899e-15
71    0.000569881051
72    0.000962699538
73    -0.000269458962
74    2.005274e-14
75    0.000982164831
76    4.98496432e-05
77    -0.000116463771
78    3.2742376e-14
79    0.000254759111
80    2.56349234e-15
81    0.000375241676
82    4.55079471e-17
83    -0.000219309536
84    3.81966877e-07
85    2.80691906e-06
86    1.46628942e-05
87    4.70050829e-05
88    0.000139218074
89    0.000182099627
90    0.000200714014
91    -0.000212983004
92    0.00012712025
93    1.2871954e-15
94    -0.000595346242
95    -0.00053578711
96    0.000316983359
97    1.73336272e-15
98    0.000300215627
99    0.000282665111
100    -0.000155053391
101    3.90745406e-15
102    -0.000192725276
103    -0.000330260133
104    0.000141086917
105    1.29806459e-15
106    0.000968690258
107    0.000134568933
108    -0.000130268802
109    -2.24378114e-14
110    0.000242186516
111    -2.71723658e-16
112    0.000116779994
113    8.03886326e-17
114    -0.000125924764
115    3.49542044e-07
116    2.68817018e-06
117    1.35349206e-05
118    4.59899109e-05
119    0.000113810867
120    6.50383877e-05
121    0.000132019877
122    -1.88505684e-05
123    2.27727168e-06
124    1.76432361e-15
125    -3.72386984e-05
126    5.64690199e-05
127    -6.201834e-06
128    2.1006244e-15
129    -0.000115995293
130    -0.000329655236
131    -2.25714307e-06
132    6.82615698e-15
133    -0.00410129355
134    0.000577640013
135    0.00108600638
136    -4.28296073e-14
137    -0.00084628989
138    0.00015919319
139    0.00013187683
140    -1.71605132e-14
141    8.28769067e-06
142    2.16949012e-15
143    -5.37008624e-06
144    9.25877449e-16
145    -4.02942901e-05
146    1.54283138e-09
147    -1.12195697e-09
148    8.78417129e-08
149    -5.09138315e-08
150    3.21730699e-06
151    1.24270189e-05
152    -6.70729033e-06
153    -1.77249016e-06
154    -7.78938779e-07
155    2.13787711e-15
156    -3.14015863e-05
157    2.24739856e-05
158    1.59716188e-06
159    4.49256396e-15
160    9.60295515e-05
161    -5.1425656e-05
162    -5.23657373e-05
163    1.64663635e-15
164    0.000569616428
165    -0.000205371313
166    -0.000116205409
167    1.26732344e-14
168    -5.50682893e-05
169    -1.6653378e-05
170    -0.00013117496
171    1.58110279e-14
172    2.83308555e-06
173    -1.54772866e-16
174    -9.06946379e-07
175    -5.28557878e-16
176    -5.86721656e-06
177    3.03580968e-07
178    2.19694982e-06
179    1.17001242e-05
180    3.66151033e-05
181    0.000119451668
182    0.000202547721
183    9.99657559e-05
184    7.93688734e-05
185    4.49248533e-05
186    1.39431162e-15
187    -0.000521943167
188    0.000567550849
189    0.000273316376
190    5.0070026e-15
191    0.000283306949
192    -0.000309999703
193    -6.81646792e-05
194    -1.05936579e-16
195    0.000120454274
196    -0.000387554298
197    -0.000344390411
198    2.03422043e-14
199    -0.00032258318
200    0.000240920854
201    6.21697131e-05
202    -7.22181043e-15
203    -0.000212520654
204    1.42364622e-16
205    7.46124452e-05
206    8.82122953e-17
207    -0.000187592345
208    2.92809256e-07
209    2.07771425e-06
210    1.13815646e-05
211    3.45234153e-05
212    0.000124262057
213    0.000242698789
214    7.08705703e-05
215    -9.1670191e-06
216    -8.22877676e-05
217    -2.31350325e-15
218    -0.000584449057
219    3.898865e-05
220    -0.000743645614
221    -5.69592285e-15
222    0.000205165839
223    1.13688472e-05
224    0.000207766095
225    -6.55319825e-16
226    0.00111226337
227    -3.97855592e-05
228    0.000429766522
229    -8.61347808e-15
230    0.000383797138
231    0.000264393118
232    -0.000216942616
233    3.26950711e-14
234    2.94916611e-05
235    8.36730564e-16
236    0.000106578119
237    -5.92559683e-16
238    0.000335133163
239    8.76885259e-08
240    6.49389233e-07
241    3.45214491e-06
242    1.10318682e-05
243    3.39514336e-05
244    4.54984543e-05
245    1.74996299e-05
246    -8.76588554e-06
247    2.3511098e-06
248    -2.59672817e-15
249    -8.35231997e-05
250    7.05100099e-05
251    -1.40281014e-05
252    -3.25774483e-15
253    1.0478817e-05
254    7.54284206e-05
255    1.40473498e-05
256    -7.38713504e-15
257    0.00696724466
258    -0.00119552791
259    0.000728735513
260    2.91081654e-14
261    7.44099299e-05
262    -5.1854533e-05
263    0.000106503947
264    4.22866032e-14
265    -2.61447039e-05
266    1.12447445e-15
267    -3.21459738e-06
268    1.26504407e-15
269    -4.78077962e-06
270    -6.03053193e-06
271    -4.60311084e-05
272    1.48500367e-05
273    0.000164172656
274    1.30052795e-05
275    -7.78383654e-06
276    -1.08744593e-15
[5D]