[Molden Format]
[Atoms] (Angs)
  C      1    6     -0.00714236     -1.70213747     -0.00000000
  H      2    1     -2.06882847     -1.44022412      0.00000000
  H      3    1     -0.12337987     -2.77567521      0.00000000
  H      4    1      0.04651892      1.98813947     -0.00000000
  C      5    6     -1.21953563      0.40211669      0.00000000
  O      6    8     -2.25921553      1.03043814      0.00000000
  C      7    6      1.28797806      0.34644937     -0.00000000
  O      8    8      2.31273661      1.00537216     -0.00000000
  N      9    7      0.03446295      0.97739857     -0.00000000
  N     10    7     -1.17287765     -0.98229824      0.00000000
  C     11    6      1.20107039     -1.10433419     -0.00000000
  H     12    1      2.11220096     -1.67699125     -0.00000000
[GTO]
1    0
S    1    1.000000
   4.56324000E+03    1.96665000E-03 
S    1    1.000000
   6.82024000E+02    1.52306000E-02 
S    1    1.000000
   1.54973000E+02    7.61269000E-02 
S    1    1.000000
   4.44553000E+01    2.60801000E-01 
S    1    1.000000
   1.30290000E+01    6.16462000E-01 
S    1    1.000000
   1.82773000E+00    2.21006000E-01 
SP   3    1.000000
   2.09642000E+01    1.14660000E-01   4.02487000E-02 
   4.80331000E+00    9.19999000E-01   2.37594000E-01 
   1.45933000E+00   -3.03068000E-03   8.15854000E-01 
SP   1    1.000000
   4.83456000E-01    1.00000000E+00   1.00000000E+00 
SP   1    1.000000
   1.45585000E-01    1.00000000E+00   1.00000000E+00 
SP   1    1.000000
   4.38000000E-02    1.00000000E+00   1.00000000E+00 
SP   1    1.000000
   1.31927711E-02    1.00000000E+00   1.00000000E+00 
D    1    1.000000
   6.26000000E-01    1.00000000E+00 

2    0
S    3    1.000000
   3.38650000E+01    2.54938000E-02 
   5.09479000E+00    1.90373000E-01 
   1.15879000E+00    8.52161000E-01 
S    1    1.000000
   3.25840000E-01    1.00000000E+00 
S    1    1.000000
   1.02741000E-01    1.00000000E+00 
S    1    1.000000
   3.60000000E-02    1.00000000E+00 
P    1    1.000000
   7.50000000E-01    1.00000000E+00 

3    0
S    3    1.000000
   3.38650000E+01    2.54938000E-02 
   5.09479000E+00    1.90373000E-01 
   1.15879000E+00    8.52161000E-01 
S    1    1.000000
   3.25840000E-01    1.00000000E+00 
S    1    1.000000
   1.02741000E-01    1.00000000E+00 
S    1    1.000000
   3.60000000E-02    1.00000000E+00 
P    1    1.000000
   7.50000000E-01    1.00000000E+00 

4    0
S    3    1.000000
   3.38650000E+01    2.54938000E-02 
   5.09479000E+00    1.90373000E-01 
   1.15879000E+00    8.52161000E-01 
S    1    1.000000
   3.25840000E-01    1.00000000E+00 
S    1    1.000000
   1.02741000E-01    1.00000000E+00 
S    1    1.000000
   3.60000000E-02    1.00000000E+00 
P    1    1.000000
   7.50000000E-01    1.00000000E+00 

5    0
S    1    1.000000
   4.56324000E+03    1.96665000E-03 
S    1    1.000000
   6.82024000E+02    1.52306000E-02 
S    1    1.000000
   1.54973000E+02    7.61269000E-02 
S    1    1.000000
   4.44553000E+01    2.60801000E-01 
S    1    1.000000
   1.30290000E+01    6.16462000E-01 
S    1    1.000000
   1.82773000E+00    2.21006000E-01 
SP   3    1.000000
   2.09642000E+01    1.14660000E-01   4.02487000E-02 
   4.80331000E+00    9.19999000E-01   2.37594000E-01 
   1.45933000E+00   -3.03068000E-03   8.15854000E-01 
SP   1    1.000000
   4.83456000E-01    1.00000000E+00   1.00000000E+00 
SP   1    1.000000
   1.45585000E-01    1.00000000E+00   1.00000000E+00 
SP   1    1.000000
   4.38000000E-02    1.00000000E+00   1.00000000E+00 
SP   1    1.000000
   1.31927711E-02    1.00000000E+00   1.00000000E+00 
D    1    1.000000
   6.26000000E-01    1.00000000E+00 

6    0
S    1    1.000000
   8.58850000E+03    1.89515000E-03 
S    1    1.000000
   1.29723000E+03    1.43859000E-02 
S    1    1.000000
   2.99296000E+02    7.07320000E-02 
S    1    1.000000
   8.73771000E+01    2.40001000E-01 
S    1    1.000000
   2.56789000E+01    5.94797000E-01 
S    1    1.000000
   3.74004000E+00    2.80802000E-01 
SP   3    1.000000
   4.21175000E+01    1.13889000E-01   3.65114000E-02 
   9.62837000E+00    9.20811000E-01   2.37153000E-01 
   2.85332000E+00   -3.27447000E-03   8.19702000E-01 
SP   1    1.000000
   9.05661000E-01    1.00000000E+00   1.00000000E+00 
SP   1    1.000000
   2.55611000E-01    1.00000000E+00   1.00000000E+00 
SP   1    1.000000
   8.45000000E-02    1.00000000E+00   1.00000000E+00 
SP   1    1.000000
   2.54518072E-02    1.00000000E+00   1.00000000E+00 
D    1    1.000000
   1.29200000E+00    1.00000000E+00 

7    0
S    1    1.000000
   4.56324000E+03    1.96665000E-03 
S    1    1.000000
   6.82024000E+02    1.52306000E-02 
S    1    1.000000
   1.54973000E+02    7.61269000E-02 
S    1    1.000000
   4.44553000E+01    2.60801000E-01 
S    1    1.000000
   1.30290000E+01    6.16462000E-01 
S    1    1.000000
   1.82773000E+00    2.21006000E-01 
SP   3    1.000000
   2.09642000E+01    1.14660000E-01   4.02487000E-02 
   4.80331000E+00    9.19999000E-01   2.37594000E-01 
   1.45933000E+00   -3.03068000E-03   8.15854000E-01 
SP   1    1.000000
   4.83456000E-01    1.00000000E+00   1.00000000E+00 
SP   1    1.000000
   1.45585000E-01    1.00000000E+00   1.00000000E+00 
SP   1    1.000000
   4.38000000E-02    1.00000000E+00   1.00000000E+00 
SP   1    1.000000
   1.31927711E-02    1.00000000E+00   1.00000000E+00 
D    1    1.000000
   6.26000000E-01    1.00000000E+00 

8    0
S    1    1.000000
   8.58850000E+03    1.89515000E-03 
S    1    1.000000
   1.29723000E+03    1.43859000E-02 
S    1    1.000000
   2.99296000E+02    7.07320000E-02 
S    1    1.000000
   8.73771000E+01    2.40001000E-01 
S    1    1.000000
   2.56789000E+01    5.94797000E-01 
S    1    1.000000
   3.74004000E+00    2.80802000E-01 
SP   3    1.000000
   4.21175000E+01    1.13889000E-01   3.65114000E-02 
   9.62837000E+00    9.20811000E-01   2.37153000E-01 
   2.85332000E+00   -3.27447000E-03   8.19702000E-01 
SP   1    1.000000
   9.05661000E-01    1.00000000E+00   1.00000000E+00 
SP   1    1.000000
   2.55611000E-01    1.00000000E+00   1.00000000E+00 
SP   1    1.000000
   8.45000000E-02    1.00000000E+00   1.00000000E+00 
SP   1    1.000000
   2.54518072E-02    1.00000000E+00   1.00000000E+00 
D    1    1.000000
   1.29200000E+00    1.00000000E+00 

9    0
S    1    1.000000
   6.29348000E+03    1.96979000E-03 
S    1    1.000000
   9.49044000E+02    1.49613000E-02 
S    1    1.000000
   2.18776000E+02    7.35006000E-02 
S    1    1.000000
   6.36916000E+01    2.48937000E-01 
S    1    1.000000
   1.88282000E+01    6.02460000E-01 
S    1    1.000000
   2.72023000E+00    2.56202000E-01 
SP   3    1.000000
   3.06331000E+01    1.11906000E-01   3.83119000E-02 
   7.02614000E+00    9.21666000E-01   2.37403000E-01 
   2.11205000E+00   -2.56919000E-03   8.17592000E-01 
SP   1    1.000000
   6.84009000E-01    1.00000000E+00   1.00000000E+00 
SP   1    1.000000
   2.00878000E-01    1.00000000E+00   1.00000000E+00 
SP   1    1.000000
   6.39000000E-02    1.00000000E+00   1.00000000E+00 
SP   1    1.000000
   1.92469880E-02    1.00000000E+00   1.00000000E+00 
D    1    1.000000
   9.13000000E-01    1.00000000E+00 

10    0
S    1    1.000000
   6.29348000E+03    1.96979000E-03 
S    1    1.000000
   9.49044000E+02    1.49613000E-02 
S    1    1.000000
   2.18776000E+02    7.35006000E-02 
S    1    1.000000
   6.36916000E+01    2.48937000E-01 
S    1    1.000000
   1.88282000E+01    6.02460000E-01 
S    1    1.000000
   2.72023000E+00    2.56202000E-01 
SP   3    1.000000
   3.06331000E+01    1.11906000E-01   3.83119000E-02 
   7.02614000E+00    9.21666000E-01   2.37403000E-01 
   2.11205000E+00   -2.56919000E-03   8.17592000E-01 
SP   1    1.000000
   6.84009000E-01    1.00000000E+00   1.00000000E+00 
SP   1    1.000000
   2.00878000E-01    1.00000000E+00   1.00000000E+00 
SP   1    1.000000
   6.39000000E-02    1.00000000E+00   1.00000000E+00 
SP   1    1.000000
   1.92469880E-02    1.00000000E+00   1.00000000E+00 
D    1    1.000000
   9.13000000E-01    1.00000000E+00 

11    0
S    1    1.000000
   4.56324000E+03    1.96665000E-03 
S    1    1.000000
   6.82024000E+02    1.52306000E-02 
S    1    1.000000
   1.54973000E+02    7.61269000E-02 
S    1    1.000000
   4.44553000E+01    2.60801000E-01 
S    1    1.000000
   1.30290000E+01    6.16462000E-01 
S    1    1.000000
   1.82773000E+00    2.21006000E-01 
SP   3    1.000000
   2.09642000E+01    1.14660000E-01   4.02487000E-02 
   4.80331000E+00    9.19999000E-01   2.37594000E-01 
   1.45933000E+00   -3.03068000E-03   8.15854000E-01 
SP   1    1.000000
   4.83456000E-01    1.00000000E+00   1.00000000E+00 
SP   1    1.000000
   1.45585000E-01    1.00000000E+00   1.00000000E+00 
SP   1    1.000000
   4.38000000E-02    1.00000000E+00   1.00000000E+00 
SP   1    1.000000
   1.31927711E-02    1.00000000E+00   1.00000000E+00 
D    1    1.000000
   6.26000000E-01    1.00000000E+00 

12    0
S    3    1.000000
   3.38650000E+01    2.54938000E-02 
   5.09479000E+00    1.90373000E-01 
   1.15879000E+00    8.52161000E-01 
S    1    1.000000
   3.25840000E-01    1.00000000E+00 
S    1    1.000000
   1.02741000E-01    1.00000000E+00 
S    1    1.000000
   3.60000000E-02    1.00000000E+00 
P    1    1.000000
   7.50000000E-01    1.00000000E+00 

[MO]
Sym=X
Ene=0.950305
Spin=Alpha
Occup=1
1    -3.30049302e-08
2    -2.07006004e-07
3    -1.38297318e-06
4    -3.40976878e-06
5    -2.12926319e-05
6    -6.66114916e-05
7    1.8780423e-05
8    -1.89747552e-05
9    -1.79217495e-05
10    -7.32244356e-16
11    0.000147858118
12    0.000141743941
13    0.000122373013
14    -4.7308124e-15
15    3.43180344e-05
16    -9.27759321e-05
17    0.000155628033
18    2.08044343e-15
19    -0.0017525755
20    -5.56868457e-05
21    -0.000518465031
22    -2.91438262e-14
23    -8.10893884e-05
24    3.70585945e-06
25    -9.65463521e-05
26    -5.20498121e-14
27    8.58674156e-05
28    7.48469018e-16
29    -3.51909379e-06
30    -1.38716722e-15
31    1.35677854e-05
32    1.20981773e-05
33    -5.40756985e-05
34    0.000276933073
35    0.000396168674
36    6.35229781e-07
37    -3.4675256e-06
38    6.63707383e-16
39    5.09913868e-07
40    9.03012638e-05
41    -3.14821579e-05
42    0.000120158174
43    1.74356653e-05
44    1.85816646e-05
45    -7.00594383e-16
46    3.59723711e-05
47    3.32602475e-05
48    1.18093678e-05
49    -0.000357350708
50    1.32111716e-07
51    -4.03451002e-05
52    1.01407012e-15
53    3.61648687e-07
54    2.83254468e-06
55    1.38962428e-05
56    4.8613756e-05
57    0.000105851872
58    5.3672611e-07
59    0.000175205625
60    -2.00712203e-05
61    -5.43024904e-08
62    2.66238241e-15
63    6.90015002e-05
64    6.31133978e-05
65    -6.54317911e-06
66    7.43136607e-15
67    4.22283081e-05
68    -0.000349184417
69    7.76521509e-05
70    4.68154369e-15
71    0.000852954103
72    1.82135808e-05
73    -0.000386578889
74    -1.77899789e-14
75    -0.000116849874
76    -8.44110959e-05
77    -1.38992463e-05
78    -7.55710189e-15
79    1.19527166e-06
80    1.03484893e-15
81    -5.38311017e-07
82    -7.84540806e-16
83    4.74363816e-05
84    -1.62362443e-09
85    -1.56981029e-09
86    -8.6142115e-08
87    4.34528407e-10
88    -2.79881496e-06
89    -1.05232887e-05
90    5.38800194e-06
91    -1.05838344e-06
92    5.55527227e-07
93    2.66116263e-15
94    2.93519691e-05
95    1.94319191e-05
96    -4.53304546e-07
97    4.73684703e-15
98    -0.000116033627
99    -6.21480485e-05
100    5.81476976e-05
101    4.5333038e-15
102    -0.00060732064
103    -0.000206808813
104    4.17747887e-05
105    1.13087799e-14
106    5.1460941e-05
107    8.62859622e-05
108    0.000220924005
109    -8.67300217e-15
110    5.08090237e-06
111    1.62667456e-16
112    1.74228199e-06
113    7.6430466e-16
114    5.7188032e-06
115    0.00110962631
116    0.00859013609
117    0.0428528311
118    0.147119602
119    0.347570207
120    0.126271127
121    0.465619222
122    -0.000589611988
123    0.000337777454
124    4.33535987e-16
125    0.00138344537
126    0.000624127501
127    -0.000112658158
128    1.64339677e-15
129    0.00216822229
130    -0.000366965773
131    0.000281912333
132    -9.8868087e-17
133    -0.00261170002
134    0.000393906101
135    0.00240951244
136    -3.33372861e-14
137    -0.00032931626
138    -6.72810519e-05
139    -5.02018439e-05
140    -9.72334646e-16
141    0.00028646043
142    1.10830697e-15
143    -0.000429189979
144    -4.3762477e-16
145    5.13814691e-06
146    -3.76605398e-07
147    -2.75265236e-06
148    -1.44922305e-05
149    -4.60868089e-05
150    -0.0001410496
151    -0.000201937963
152    -0.000187454362
153    -0.000205027764
154    -0.000135011804
155    1.14568056e-15
156    0.000658462931
157    -0.000577292205
158    -0.000378072753
159    1.84097669e-16
160    -0.000309837659
161    0.000273996852
162    0.000140257264
163    -3.20652132e-16
164    -0.000531335778
165    -4.22689017e-05
166    -0.000143602142
167    8.14419598e-15
168    -0.00255684572
169    0.000618667922
170    6.28823627e-05
171    -9.77310647e-15
172    0.000263602156
173    -2.13264221e-17
174    -0.000120970738
175    -2.29313781e-16
176    0.000117104742
177    -2.78255752e-07
178    -1.95811018e-06
179    -1.08553288e-05
180    -3.24589803e-05
181    -0.000120848673
182    -0.000236320542
183    -6.05454056e-05
184    5.29092416e-05
185    -4.17559909e-05
186    7.22461605e-16
187    0.0005461187
188    0.000626617839
189    -0.000300943787
190    6.0859643e-15
191    -0.000204086512
192    -0.000274883272
193    -7.88639613e-06
194    -2.57805245e-15
195    -0.00115910657
196    -0.00091783526
197    0.00018831587
198    2.82116926e-14
199    0.000786198813
200    0.000937775845
201    8.63684388e-05
202    1.35798765e-14
203    -0.000244569405
204    -3.97650886e-17
205    -9.53818922e-05
206    -4.66553668e-16
207    0.000194672441
208    9.91179423e-10
209    5.33047911e-08
210    -6.79861416e-08
211    1.03728724e-06
212    -9.01348555e-06
213    -4.28733756e-05
214    2.73731854e-05
215    -8.22157068e-06
216    -1.35507251e-06
217    -1.30549667e-17
218    9.00698592e-05
219    3.25903423e-05
220    6.9063376e-06
221    2.56948997e-15
222    -0.000139946315
223    -6.96317696e-05
224    -1.24256585e-05
225    -1.58027022e-15
226    -0.000161132425
227    0.000532444207
228    9.00905142e-05
229    1.28875512e-14
230    0.000405005363
231    -7.86265831e-05
232    0.000369512487
233    4.57594815e-14
234    -1.11335501e-05
235    1.19150856e-15
236    -3.38277454e-06
237    -4.89374292e-16
238    -1.61881887e-06
239    8.39042084e-06
240    6.4909025e-05
241    0.000324032869
242    0.00111098679
243    0.00263224079
244    0.000933020525
245    0.00346579145
246    -7.94356682e-06
247    9.10337618e-05
248    -1.69369396e-15
249    0.000322307551
250    9.136399e-05
251    0.000517287282
252    -2.88612306e-15
253    -0.000495142126
254    0.000114831662
255    -0.000399161909
256    -4.81280402e-15
257    0.0061061275
258    -0.000262112489
259    0.00140611882
260    2.65213303e-14
261    0.000437557207
262    -4.66421181e-05
263    0.000126413823
264    3.01481398e-14
265    4.53593085e-05
266    8.80914226e-16
267    -1.07605043e-06
268    3.05654791e-16
269    -0.0003083372
270    3.3466913e-05
271    0.000104571718
272    -0.0002223519
273    0.00023213399
274    -4.53663118e-05
275    7.9752832e-05
276    -1.28947867e-15
[5D]