[Molden Format]
[Atoms] (Angs)
  C      1    6     -0.00714236     -1.70213747     -0.00000000
  H      2    1     -2.06882847     -1.44022412      0.00000000
  H      3    1     -0.12337987     -2.77567521      0.00000000
  H      4    1      0.04651892      1.98813947     -0.00000000
  C      5    6     -1.21953563      0.40211669      0.00000000
  O      6    8     -2.25921553      1.03043814      0.00000000
  C      7    6      1.28797806      0.34644937     -0.00000000
  O      8    8      2.31273661      1.00537216     -0.00000000
  N      9    7      0.03446295      0.97739857     -0.00000000
  N     10    7     -1.17287765     -0.98229824      0.00000000
  C     11    6      1.20107039     -1.10433419     -0.00000000
  H     12    1      2.11220096     -1.67699125     -0.00000000
[GTO]
1    0
S    1    1.000000
   4.56324000E+03    1.96665000E-03 
S    1    1.000000
   6.82024000E+02    1.52306000E-02 
S    1    1.000000
   1.54973000E+02    7.61269000E-02 
S    1    1.000000
   4.44553000E+01    2.60801000E-01 
S    1    1.000000
   1.30290000E+01    6.16462000E-01 
S    1    1.000000
   1.82773000E+00    2.21006000E-01 
SP   3    1.000000
   2.09642000E+01    1.14660000E-01   4.02487000E-02 
   4.80331000E+00    9.19999000E-01   2.37594000E-01 
   1.45933000E+00   -3.03068000E-03   8.15854000E-01 
SP   1    1.000000
   4.83456000E-01    1.00000000E+00   1.00000000E+00 
SP   1    1.000000
   1.45585000E-01    1.00000000E+00   1.00000000E+00 
SP   1    1.000000
   4.38000000E-02    1.00000000E+00   1.00000000E+00 
SP   1    1.000000
   1.31927711E-02    1.00000000E+00   1.00000000E+00 
D    1    1.000000
   6.26000000E-01    1.00000000E+00 

2    0
S    3    1.000000
   3.38650000E+01    2.54938000E-02 
   5.09479000E+00    1.90373000E-01 
   1.15879000E+00    8.52161000E-01 
S    1    1.000000
   3.25840000E-01    1.00000000E+00 
S    1    1.000000
   1.02741000E-01    1.00000000E+00 
S    1    1.000000
   3.60000000E-02    1.00000000E+00 
P    1    1.000000
   7.50000000E-01    1.00000000E+00 

3    0
S    3    1.000000
   3.38650000E+01    2.54938000E-02 
   5.09479000E+00    1.90373000E-01 
   1.15879000E+00    8.52161000E-01 
S    1    1.000000
   3.25840000E-01    1.00000000E+00 
S    1    1.000000
   1.02741000E-01    1.00000000E+00 
S    1    1.000000
   3.60000000E-02    1.00000000E+00 
P    1    1.000000
   7.50000000E-01    1.00000000E+00 

4    0
S    3    1.000000
   3.38650000E+01    2.54938000E-02 
   5.09479000E+00    1.90373000E-01 
   1.15879000E+00    8.52161000E-01 
S    1    1.000000
   3.25840000E-01    1.00000000E+00 
S    1    1.000000
   1.02741000E-01    1.00000000E+00 
S    1    1.000000
   3.60000000E-02    1.00000000E+00 
P    1    1.000000
   7.50000000E-01    1.00000000E+00 

5    0
S    1    1.000000
   4.56324000E+03    1.96665000E-03 
S    1    1.000000
   6.82024000E+02    1.52306000E-02 
S    1    1.000000
   1.54973000E+02    7.61269000E-02 
S    1    1.000000
   4.44553000E+01    2.60801000E-01 
S    1    1.000000
   1.30290000E+01    6.16462000E-01 
S    1    1.000000
   1.82773000E+00    2.21006000E-01 
SP   3    1.000000
   2.09642000E+01    1.14660000E-01   4.02487000E-02 
   4.80331000E+00    9.19999000E-01   2.37594000E-01 
   1.45933000E+00   -3.03068000E-03   8.15854000E-01 
SP   1    1.000000
   4.83456000E-01    1.00000000E+00   1.00000000E+00 
SP   1    1.000000
   1.45585000E-01    1.00000000E+00   1.00000000E+00 
SP   1    1.000000
   4.38000000E-02    1.00000000E+00   1.00000000E+00 
SP   1    1.000000
   1.31927711E-02    1.00000000E+00   1.00000000E+00 
D    1    1.000000
   6.26000000E-01    1.00000000E+00 

6    0
S    1    1.000000
   8.58850000E+03    1.89515000E-03 
S    1    1.000000
   1.29723000E+03    1.43859000E-02 
S    1    1.000000
   2.99296000E+02    7.07320000E-02 
S    1    1.000000
   8.73771000E+01    2.40001000E-01 
S    1    1.000000
   2.56789000E+01    5.94797000E-01 
S    1    1.000000
   3.74004000E+00    2.80802000E-01 
SP   3    1.000000
   4.21175000E+01    1.13889000E-01   3.65114000E-02 
   9.62837000E+00    9.20811000E-01   2.37153000E-01 
   2.85332000E+00   -3.27447000E-03   8.19702000E-01 
SP   1    1.000000
   9.05661000E-01    1.00000000E+00   1.00000000E+00 
SP   1    1.000000
   2.55611000E-01    1.00000000E+00   1.00000000E+00 
SP   1    1.000000
   8.45000000E-02    1.00000000E+00   1.00000000E+00 
SP   1    1.000000
   2.54518072E-02    1.00000000E+00   1.00000000E+00 
D    1    1.000000
   1.29200000E+00    1.00000000E+00 

7    0
S    1    1.000000
   4.56324000E+03    1.96665000E-03 
S    1    1.000000
   6.82024000E+02    1.52306000E-02 
S    1    1.000000
   1.54973000E+02    7.61269000E-02 
S    1    1.000000
   4.44553000E+01    2.60801000E-01 
S    1    1.000000
   1.30290000E+01    6.16462000E-01 
S    1    1.000000
   1.82773000E+00    2.21006000E-01 
SP   3    1.000000
   2.09642000E+01    1.14660000E-01   4.02487000E-02 
   4.80331000E+00    9.19999000E-01   2.37594000E-01 
   1.45933000E+00   -3.03068000E-03   8.15854000E-01 
SP   1    1.000000
   4.83456000E-01    1.00000000E+00   1.00000000E+00 
SP   1    1.000000
   1.45585000E-01    1.00000000E+00   1.00000000E+00 
SP   1    1.000000
   4.38000000E-02    1.00000000E+00   1.00000000E+00 
SP   1    1.000000
   1.31927711E-02    1.00000000E+00   1.00000000E+00 
D    1    1.000000
   6.26000000E-01    1.00000000E+00 

8    0
S    1    1.000000
   8.58850000E+03    1.89515000E-03 
S    1    1.000000
   1.29723000E+03    1.43859000E-02 
S    1    1.000000
   2.99296000E+02    7.07320000E-02 
S    1    1.000000
   8.73771000E+01    2.40001000E-01 
S    1    1.000000
   2.56789000E+01    5.94797000E-01 
S    1    1.000000
   3.74004000E+00    2.80802000E-01 
SP   3    1.000000
   4.21175000E+01    1.13889000E-01   3.65114000E-02 
   9.62837000E+00    9.20811000E-01   2.37153000E-01 
   2.85332000E+00   -3.27447000E-03   8.19702000E-01 
SP   1    1.000000
   9.05661000E-01    1.00000000E+00   1.00000000E+00 
SP   1    1.000000
   2.55611000E-01    1.00000000E+00   1.00000000E+00 
SP   1    1.000000
   8.45000000E-02    1.00000000E+00   1.00000000E+00 
SP   1    1.000000
   2.54518072E-02    1.00000000E+00   1.00000000E+00 
D    1    1.000000
   1.29200000E+00    1.00000000E+00 

9    0
S    1    1.000000
   6.29348000E+03    1.96979000E-03 
S    1    1.000000
   9.49044000E+02    1.49613000E-02 
S    1    1.000000
   2.18776000E+02    7.35006000E-02 
S    1    1.000000
   6.36916000E+01    2.48937000E-01 
S    1    1.000000
   1.88282000E+01    6.02460000E-01 
S    1    1.000000
   2.72023000E+00    2.56202000E-01 
SP   3    1.000000
   3.06331000E+01    1.11906000E-01   3.83119000E-02 
   7.02614000E+00    9.21666000E-01   2.37403000E-01 
   2.11205000E+00   -2.56919000E-03   8.17592000E-01 
SP   1    1.000000
   6.84009000E-01    1.00000000E+00   1.00000000E+00 
SP   1    1.000000
   2.00878000E-01    1.00000000E+00   1.00000000E+00 
SP   1    1.000000
   6.39000000E-02    1.00000000E+00   1.00000000E+00 
SP   1    1.000000
   1.92469880E-02    1.00000000E+00   1.00000000E+00 
D    1    1.000000
   9.13000000E-01    1.00000000E+00 

10    0
S    1    1.000000
   6.29348000E+03    1.96979000E-03 
S    1    1.000000
   9.49044000E+02    1.49613000E-02 
S    1    1.000000
   2.18776000E+02    7.35006000E-02 
S    1    1.000000
   6.36916000E+01    2.48937000E-01 
S    1    1.000000
   1.88282000E+01    6.02460000E-01 
S    1    1.000000
   2.72023000E+00    2.56202000E-01 
SP   3    1.000000
   3.06331000E+01    1.11906000E-01   3.83119000E-02 
   7.02614000E+00    9.21666000E-01   2.37403000E-01 
   2.11205000E+00   -2.56919000E-03   8.17592000E-01 
SP   1    1.000000
   6.84009000E-01    1.00000000E+00   1.00000000E+00 
SP   1    1.000000
   2.00878000E-01    1.00000000E+00   1.00000000E+00 
SP   1    1.000000
   6.39000000E-02    1.00000000E+00   1.00000000E+00 
SP   1    1.000000
   1.92469880E-02    1.00000000E+00   1.00000000E+00 
D    1    1.000000
   9.13000000E-01    1.00000000E+00 

11    0
S    1    1.000000
   4.56324000E+03    1.96665000E-03 
S    1    1.000000
   6.82024000E+02    1.52306000E-02 
S    1    1.000000
   1.54973000E+02    7.61269000E-02 
S    1    1.000000
   4.44553000E+01    2.60801000E-01 
S    1    1.000000
   1.30290000E+01    6.16462000E-01 
S    1    1.000000
   1.82773000E+00    2.21006000E-01 
SP   3    1.000000
   2.09642000E+01    1.14660000E-01   4.02487000E-02 
   4.80331000E+00    9.19999000E-01   2.37594000E-01 
   1.45933000E+00   -3.03068000E-03   8.15854000E-01 
SP   1    1.000000
   4.83456000E-01    1.00000000E+00   1.00000000E+00 
SP   1    1.000000
   1.45585000E-01    1.00000000E+00   1.00000000E+00 
SP   1    1.000000
   4.38000000E-02    1.00000000E+00   1.00000000E+00 
SP   1    1.000000
   1.31927711E-02    1.00000000E+00   1.00000000E+00 
D    1    1.000000
   6.26000000E-01    1.00000000E+00 

12    0
S    3    1.000000
   3.38650000E+01    2.54938000E-02 
   5.09479000E+00    1.90373000E-01 
   1.15879000E+00    8.52161000E-01 
S    1    1.000000
   3.25840000E-01    1.00000000E+00 
S    1    1.000000
   1.02741000E-01    1.00000000E+00 
S    1    1.000000
   3.60000000E-02    1.00000000E+00 
P    1    1.000000
   7.50000000E-01    1.00000000E+00 

[MO]
Sym=X
Ene=0.946831
Spin=Alpha
Occup=1
1    5.30383206e-05
2    0.000410661368
3    0.00204828145
4    0.00703424513
5    0.0166056445
6    0.00613354988
7    0.0223336875
8    -0.00016945298
9    -2.69190587e-05
10    1.45714012e-16
11    -0.000540864482
12    -0.000662499016
13    -0.000410568466
14    2.74648386e-15
15    2.34716041e-05
16    4.73740633e-05
17    0.000139865192
18    1.57477513e-15
19    0.00329559692
20    0.000285343019
21    0.00112944275
22    -5.60696911e-14
23    0.000273858072
24    -6.14797876e-05
25    0.000173701636
26    6.26023694e-14
27    -0.000310382849
28    5.34337641e-16
29    7.99220815e-05
30    -1.69669301e-15
31    -0.000225805345
32    -4.90934853e-06
33    -3.23950562e-05
34    1.94975222e-05
35    -2.03477106e-05
36    -1.17497856e-05
37    3.4691388e-06
38    1.65879899e-15
39    -5.96457723e-06
40    -7.27154869e-05
41    0.000242428424
42    0.000314710291
43    -3.79000095e-05
44    -4.51730847e-05
45    4.19431751e-16
46    -8.86562054e-06
47    -3.43993904e-05
48    1.20138208e-05
49    -3.33469377e-05
50    -3.52354844e-06
51    9.86266732e-06
52    3.88170769e-16
53    -6.62976151e-08
54    -5.30711437e-07
55    -2.52158843e-06
56    -9.14622687e-06
57    -1.6973845e-05
58    1.21462829e-05
59    -3.91614195e-05
60    3.7333795e-06
61    -2.6800192e-06
62    2.38354533e-15
63    -4.67199395e-05
64    -1.50477281e-05
65    1.15564775e-05
66    7.89284299e-15
67    0.000150146783
68    0.000249433338
69    -0.000155162523
70    4.0487296e-15
71    -0.000806675597
72    -2.47788767e-05
73    0.000150533859
74    -7.43220365e-14
75    -0.000385661889
76    -6.50235985e-05
77    -3.68698671e-05
78    -6.01829447e-14
79    -4.12408212e-06
80    -2.91893407e-16
81    -1.92250539e-06
82    -1.00020177e-15
83    -1.02546029e-06
84    3.55313253e-10
85    -3.41935682e-09
86    2.72585736e-08
87    -7.1804008e-08
88    1.4468501e-06
89    6.18423109e-06
90    -3.66236029e-06
91    1.56666345e-06
92    -5.63303537e-07
93    2.39703912e-15
94    -1.62445033e-05
95    -8.17763489e-06
96    3.26419723e-06
97    3.1041832e-15
98    7.75159305e-05
99    3.73757622e-05
100    -1.9837831e-05
101    5.25287974e-15
102    0.000343209549
103    8.07130224e-05
104    -5.28370012e-05
105    1.25706981e-14
106    0.00012204738
107    -2.70103412e-05
108    -0.000107427922
109    2.96392615e-14
110    1.58775599e-08
111    -4.39320222e-16
112    -7.15085123e-07
113    3.21541591e-16
114    -7.1950999e-07
115    8.85744273e-06
116    6.85297447e-05
117    0.000342259723
118    0.00117419718
119    0.00279041479
120    0.00116278588
121    0.00371207292
122    -2.22865e-06
123    7.81937876e-05
124    -1.79655869e-15
125    -0.000535518684
126    4.79821776e-05
127    0.000695115362
128    -7.44518191e-15
129    -9.53378556e-05
130    -0.000152397289
131    -0.000221323469
132    1.11420912e-16
133    0.00289583316
134    -0.000673754111
135    -0.00111954108
136    -7.72727071e-14
137    0.000497575768
138    -6.3834632e-05
139    8.84124232e-05
140    3.71447342e-14
141    -6.32882864e-05
142    -9.54182039e-16
143    0.000111402248
144    -2.51877086e-15
145    0.000362421788
146    -8.57581918e-09
147    -8.5679638e-08
148    -2.78602598e-07
149    -1.48491376e-06
150    1.93581251e-06
151    1.95314824e-05
152    -1.96117864e-05
153    -5.33017991e-06
154    -2.31185294e-05
155    -3.56882747e-15
156    -3.41297972e-05
157    2.2474319e-05
158    3.22059172e-05
159    -3.92991564e-15
160    3.96377371e-05
161    -3.57332901e-05
162    -1.42916473e-05
163    -1.00734379e-14
164    0.000425246674
165    -5.90574832e-05
166    -4.93745596e-06
167    1.32816033e-15
168    0.00151215407
169    -0.000327332764
170    -7.33204368e-05
171    -5.44332834e-15
172    -2.28010552e-05
173    2.39594085e-16
174    -4.51823407e-07
175    6.58282714e-16
176    2.15986893e-05
177    -1.09896046e-08
178    -1.1326336e-07
179    -3.48487822e-07
180    -1.98282524e-06
181    3.00801701e-06
182    2.92766826e-05
183    -2.60665432e-05
184    1.92461427e-05
185    -1.06730027e-05
186    -1.93634906e-15
187    -3.94004363e-05
188    -5.94621605e-05
189    2.32676971e-05
190    5.32020948e-15
191    -5.54341568e-05
192    7.62690539e-05
193    7.52374525e-05
194    -1.70925903e-14
195    -0.000262328546
196    7.15797784e-05
197    8.20291811e-05
198    5.66464828e-14
199    -0.000641687327
200    -0.000576811666
201    5.00391943e-05
202    3.82942062e-14
203    2.70385297e-05
204    -3.75241837e-16
205    2.10609149e-06
206    -1.45991744e-15
207    -1.90712209e-05
208    -2.44733747e-08
209    -2.15298705e-07
210    -8.57098291e-07
211    -3.69999102e-06
212    -1.4806646e-06
213    2.32427792e-05
214    -3.24615576e-05
215    2.42190483e-05
216    -9.23455874e-06
217    9.5142447e-16
218    -2.85201845e-05
219    -3.73471941e-05
220    1.31776014e-05
221    9.38960676e-15
222    -3.64654818e-05
223    -1.26790173e-05
224    -8.20164886e-05
225    -6.00398399e-15
226    -0.000466129372
227    -0.000127057966
228    3.5277158e-06
229    5.64673167e-14
230    -0.000384735296
231    0.000154694581
232    -0.000196565638
233    1.24512593e-14
234    9.49323897e-06
235    6.59023721e-16
236    -4.81454044e-07
237    -2.88181459e-16
238    -2.18590824e-05
239    -0.00110740982
240    -0.00857325897
241    -0.0427654681
242    -0.146832927
243    -0.346852575
244    -0.127548374
245    -0.46400667
246    0.000448136653
247    -0.000165541528
248    -1.957209e-15
249    -0.0024561151
250    -0.000159710252
251    7.46127124e-05
252    9.01349423e-16
253    5.00573512e-05
254    0.000310251766
255    -0.000152118191
256    -1.21456213e-14
257    -0.00605300086
258    0.0012115342
259    -0.00112150159
260    6.88059854e-14
261    -0.000241477
262    5.53294425e-05
263    -0.000143022984
264    -7.71644998e-14
265    -1.78715264e-05
266    -1.1605622e-15
267    -0.00039117425
268    -7.57339474e-16
269    -4.66184937e-05
270    -0.000394720289
271    -0.0005248778
272    -0.000128106764
273    -0.000503903959
274    0.000293921643
275    -0.000171256098
276    -6.7825156e-16
[5D]