                  Welcome to Q-Chem
     A Quantum Leap Into The Future Of Chemistry


 Q-Chem 5.2 (devel), Q-Chem, Inc., Pleasanton, CA (2019)

 Yihan Shao,  Zhengting Gan,  E. Epifanovsky,  A. T. B. Gilbert,  M. Wormit,  
 J. Kussmann,  A. W. Lange,  A. Behn,  Jia Deng,  Xintian Feng,  D. Ghosh,  
 M. Goldey,  P. R. Horn,  L. D. Jacobson,  I. Kaliman,  T. Kus,  A. Landau,  
 Jie Liu,  E. I. Proynov,  R. M. Richard,  R. P. Steele,  E. J. Sundstrom,  
 H. L. Woodcock III,  P. M. Zimmerman,  D. Zuev,  B. Albrecht,  E. Alguire,  
 S. A. Baeppler,  D. Barton,  Z. Benda,  Y. A. Bernard,  E. J. Berquist,  
 K. B. Bravaya,  H. Burton,  D. Casanova,  Chun-Min Chang,  Yunqing Chen,  
 A. Chien,  K. D. Closser,  M. P. Coons,  S. Coriani,  S. Dasgupta,  
 A. L. Dempwolff,  M. Diedenhofen,  Hainam Do,  R. G. Edgar,  Po-Tung Fang,  
 S. Faraji,  S. Fatehi,  Qingguo Feng,  K. D. Fenk,  J. Fosso-Tande,  
 J. Gayvert,  Qinghui Ge,  A. Ghysels,  G. Gidofalvi,  J. Gomes,  
 J. Gonthier,  A. Gunina,  D. Hait,  M. W. D. Hanson-Heine,  
 P. H. P. Harbach,  A. W. Hauser,  M. F. Herbst,  J. E. Herr,  
 E. G. Hohenstein,  Z. C. Holden,  Kerwin Hui,  B. C. Huynh,  T.-C. Jagau,  
 Hyunjun Ji,  B. Kaduk,  K. Khistyaev,  Jaehoon Kim,  P. Klunzinger,  K. Koh,  
 D. Kosenkov,  L. Koulias,  T. Kowalczyk,  C. M. Krauter,  A. Kunitsa,  
 Ka Un Lao,  A. Laurent,  K. V. Lawler,  Joonho Lee,  D. Lefrancois,  
 S. Lehtola,  D. S. Levine,  Yi-Pei Li,  You-Sheng Lin,  Fenglai Liu,  
 E. Livshits,  A. Luenser,  P. Manohar,  E. Mansoor,  S. F. Manzer,  
 Shan-Ping Mao,  Yuezhi Mao,  N. Mardirossian,  A. V. Marenich,  
 T. Markovich,  L. A. Martinez-Martinez,  S. A. Maurer,  N. J. Mayhall,  
 S. C. McKenzie,  J.-M. Mewes,  P. Morgante,  A. F. Morrison,  
 J. W. Mullinax,  K. Nanda,  T. S. Nguyen-Beck,  R. Olivares-Amaya,  
 J. A. Parkhill,  Zheng Pei,  T. M. Perrine,  F. Plasser,  P. Pokhilko,  
 S. Prager,  A. Prociuk,  E. Ramos,  D. R. Rehn,  F. Rob,  M. Scheurer,  
 M. Schneider,  N. Sergueev,  S. M. Sharada,  S. Sharma,  D. W. Small,  
 T. Stauch,  T. Stein,  Yu-Chuan Su,  A. J. W. Thom,  A. Tkatchenko,  
 T. Tsuchimochi,  N. M. Tubman,  L. Vogt,  M. L. Vidal,  O. Vydrov,  
 M. A. Watson,  J. Wenzel,  M. de Wergifosse,  T. A. Wesolowski,  A. White,  
 J. Witte,  A. Yamada,  Jun Yang,  K. Yao,  S. Yeganeh,  S. R. Yost,  
 Zhi-Qiang You,  A. Zech,  Igor Ying Zhang,  Xing Zhang,  Yan Zhao,  
 Ying Zhu,  B. R. Brooks,  G. K. L. Chan,  C. J. Cramer,  M. S. Gordon,  
 W. J. Hehre,  A. Klamt,  M. W. Schmidt,  C. D. Sherrill,  D. G. Truhlar,  
 A. Aspuru-Guzik,  R. Baer,  A. T. Bell,  N. A. Besley,  Jeng-Da Chai,  
 A. E. DePrince, III,  R. A. DiStasio Jr.,  A. Dreuw,  B. D. Dunietz,  
 T. R. Furlani,  Chao-Ping Hsu,  Yousung Jung,  Jing Kong,  D. S. Lambrecht,  
 WanZhen Liang,  C. Ochsenfeld,  V. A. Rassolov,  L. V. Slipchenko,  
 J. E. Subotnik,  T. Van Voorhis,  J. M. Herbert,  A. I. Krylov,  
 P. M. W. Gill,  M. Head-Gordon

 Contributors to earlier versions of Q-Chem not listed above: 
 R. D. Adamson,  B. Austin,  J. Baker,  G. J. O. Beran,  K. Brandhorst,  
 S. T. Brown,  E. F. C. Byrd,  A. K. Chakraborty,  C.-L. Cheng,  
 Siu Hung Chien,  D. M. Chipman,  D. L. Crittenden,  H. Dachsel,  
 R. J. Doerksen,  A. D. Dutoi,  L. Fusti-Molnar,  W. A. Goddard III,  
 A. Golubeva-Zadorozhnaya,  S. R. Gwaltney,  G. Hawkins,  A. Heyden,  
 S. Hirata,  G. Kedziora,  F. J. Keil,  C. Kelley,  Jihan Kim,  R. A. King,  
 R. Z. Khaliullin,  P. P. Korambath,  W. Kurlancheek,  A. M. Lee,  M. S. Lee,  
 S. V. Levchenko,  Ching Yeh Lin,  D. Liotard,  R. C. Lochan,  I. Lotan,  
 P. E. Maslen,  N. Nair,  D. P. O'Neill,  D. Neuhauser,  E. Neuscamman,  
 C. M. Oana,  R. Olson,  B. Peters,  R. Peverati,  P. A. Pieniazek,  
 Y. M. Rhee,  J. Ritchie,  M. A. Rohrdanz,  E. Rosta,  N. J. Russ,  
 H. F. Schaefer III,  N. E. Schultz,  N. Shenvi,  A. C. Simmonett,  A. Sodt,  
 D. Stuck,  K. S. Thanthiriwatte,  V. Vanovschi,  Tao Wang,  A. Warshel,  
 C. F. Williams,  Q. Wu,  X. Xu,  W. Zhang

 Please cite Q-Chem as follows:
 Y. Shao et al., Mol. Phys. 113, 184-215 (2015)
 DOI: 10.1080/00268976.2014.952696

 Q-Chem 5.2.0 for Intel X86 EM64T Linux

 Parts of Q-Chem use Armadillo 8.300.2 (Tropical Shenanigans).
 http://arma.sourceforge.net/

 Q-Chem begins on Wed Jun  5 10:13:34 2019  

n-62-29-35
Host: 0

     Scratch files written to /work1/malop/qc_8384526.hnode2/qchem15792//
NAlpha2: 58
NElect   58
Mult     1

Checking the input file for inconsistencies... 	...done.

--------------------------------------------------------------
User input:
--------------------------------------------------------------
$comment
Uracil XPS C K-edge 6-311(2+,+)G** (uc)
geometry optimizion: mp2/cc-pvtz
$end

$molecule
0 1
C        0.052842   -1.701332    0.000000
H       -2.016793   -1.512231    0.000000
H       -0.025494   -2.778299    0.000000
H       -0.023568    1.988544    0.000000
C       -1.232948    0.358893    0.000000
O       -2.294123    0.950188    0.000000
C        1.274970    0.391620    0.000000
O        2.275873    1.086244    0.000000
N        0.000000    0.978006    0.000000
N       -1.137535   -1.023018    0.000000
C        1.239239   -1.061325    0.000000
H        2.169983   -1.601520    0.000000
$end

$rem
JOBTYPE SP
BASIS GENERAL
METHOD HF
$end

$basis
H    0
6-311(2+,+)G**
****
O    0
S    1    1.000000
   8.58850000E+03    1.89515000E-03
S    1    1.000000
   1.29723000E+03    1.43859000E-02
S    1    1.000000
   2.99296000E+02    7.07320000E-02
S    1    1.000000
   8.73771000E+01    2.40001000E-01
S    1    1.000000
   2.56789000E+01    5.94797000E-01
S    1    1.000000
   3.74004000E+00    2.80802000E-01
SP   3    1.000000
   4.21175000E+01    1.13889000E-01   3.65114000E-02
   9.62837000E+00    9.20811000E-01   2.37153000E-01
   2.85332000E+00   -3.27447000E-03   8.19702000E-01
SP   1    1.000000
   9.05661000E-01    1.00000000E+00   1.00000000E+00
SP   1    1.000000
   2.55611000E-01    1.00000000E+00   1.00000000E+00
SP   1    1.000000
   8.45000000E-02    1.00000000E+00   1.00000000E+00
SP   1    1.000000
   2.54518072E-02    1.00000000E+00   1.00000000E+00
D    1    1.000000
   1.29200000E+00    1.00000000E+00
****
N    0
S    1    1.000000
   6.29348000E+03    1.96979000E-03
S    1    1.000000
   9.49044000E+02    1.49613000E-02
S    1    1.000000
   2.18776000E+02    7.35006000E-02
S    1    1.000000
   6.36916000E+01    2.48937000E-01
S    1    1.000000
   1.88282000E+01    6.02460000E-01
S    1    1.000000
   2.72023000E+00    2.56202000E-01
SP   3    1.000000
   3.06331000E+01    1.11906000E-01   3.83119000E-02
   7.02614000E+00    9.21666000E-01   2.37403000E-01
   2.11205000E+00   -2.56919000E-03   8.17592000E-01
SP   1    1.000000
   6.84009000E-01    1.00000000E+00   1.00000000E+00
SP   1    1.000000
   2.00878000E-01    1.00000000E+00   1.00000000E+00
SP   1    1.000000
   6.39000000E-02    1.00000000E+00   1.00000000E+00
SP   1    1.000000
   1.92469880E-02    1.00000000E+00   1.00000000E+00
D    1    1.000000
   9.13000000E-01    1.00000000E+00
****
C    0
S    1    1.000000
   4.56324000E+03    1.96665000E-03
S    1    1.000000
   6.82024000E+02    1.52306000E-02
S    1    1.000000
   1.54973000E+02    7.61269000E-02
S    1    1.000000
   4.44553000E+01    2.60801000E-01
S    1    1.000000
   1.30290000E+01    6.16462000E-01
S    1    1.000000
   1.82773000E+00    2.21006000E-01
SP   3    1.000000
   2.09642000E+01    1.14660000E-01   4.02487000E-02
   4.80331000E+00    9.19999000E-01   2.37594000E-01
   1.45933000E+00   -3.03068000E-03   8.15854000E-01
SP   1    1.000000
   4.83456000E-01    1.00000000E+00   1.00000000E+00
SP   1    1.000000
   1.45585000E-01    1.00000000E+00   1.00000000E+00
SP   1    1.000000
   4.38000000E-02    1.00000000E+00   1.00000000E+00
SP   1    1.000000
   1.31927711E-02    1.00000000E+00   1.00000000E+00
D    1    1.000000
   6.26000000E-01    1.00000000E+00
****
$end
--------------------------------------------------------------
 ----------------------------------------------------------------
             Standard Nuclear Orientation (Angstroms)
    I     Atom           X                Y                Z
 ----------------------------------------------------------------
    1      C      -0.0071423615    -1.7021374661    -0.0000000000
    2      H      -2.0688284730    -1.4402241233     0.0000000000
    3      H      -0.1233798667    -2.7756752113     0.0000000000
    4      H       0.0465189185     1.9881394681    -0.0000000000
    5      C      -1.2195356258     0.4021166886     0.0000000000
    6      O      -2.2592155329     1.0304381418     0.0000000000
    7      C       1.2879780632     0.3464493659    -0.0000000000
    8      O       2.3127366072     1.0053721559    -0.0000000000
    9      N       0.0344629504     0.9773985746    -0.0000000000
   10      N      -1.1728776526    -0.9822982369     0.0000000000
   11      C       1.2010703878    -1.1043341925    -0.0000000000
   12      H       2.1122009607    -1.6769912546    -0.0000000000
 ----------------------------------------------------------------
 Molecular Point Group                 Cs    NOp =  2
 Largest Abelian Subgroup              Cs    NOp =  2
 Nuclear Repulsion Energy =         357.01163035 hartrees
 There are       29 alpha and       29 beta electrons
 Requested basis set is non-standard
 There are 116 shells and 276 basis functions

 Total QAlloc Memory Limit   2000 MB
 Mega-Array Size       188 MB
 MEM_STATIC part       192 MB

                       Distance Matrix (Angstroms)
             C (  1)   H (  2)   H (  3)   H (  4)   C (  5)   O (  6)
   H (  2)  2.078256
   H (  3)  1.079812  2.359703
   H (  4)  3.690667  4.028445  4.766843
   C (  5)  2.428535  2.028674  3.361535  2.029375
   O (  6)  3.541017  2.477987  4.364435  2.496718  1.214793
   C (  7)  2.423643  3.802677  3.426309  2.058244  2.508132  3.612537
   O (  8)  3.565452  5.017873  4.497886  2.470136  3.583415  4.572021
   N (  9)  2.679859  3.204487  3.756392  1.010813  1.379660  2.294292
   N ( 10)  1.370076  1.006193  2.077895  3.210986  1.385201  2.287190
   C ( 11)  1.348016  3.287105  2.132498  3.300967  2.851092  4.065813
   H ( 12)  2.119492  4.187728  2.490969  4.207164  3.927233  5.141931
             C (  7)   O (  8)   N (  9)   N ( 10)   C ( 11)
   O (  8)  1.218322
   N (  9)  1.403352  2.278445
   N ( 10)  2.796673  4.012523  2.301756
   C ( 11)  1.453384  2.384672  2.386333  2.377083
   H ( 12)  2.184870  2.689849  3.370872  3.357728  1.076148

 A cutoff of  1.0D-08 yielded   5065 shell pairs
 There are     33838 function pairs (     35835 Cartesian)
 Smallest overlap matrix eigenvalue = 2.79E-07

 Q-Chem warning in module stvman/mkSTV.C, line 318:

 Overlap eigenvalue is smaller than square root of threshold
 Use THRESH >= 12 to get rid of this warning

 Linear dependence detected in AO basis
 Tighter screening thresholds may be required for diffuse basis sets
 Use S2THRESH > 14 and THRESH = 14 in case of SCF convergence issues
 Number of orthogonalized atomic orbitals = 274
 Maximum deviation from orthogonality = 1.662E-10

 Scale SEOQF with 1.000000e-01/1.000000e-01/1.000000e-01

 Standard Electronic Orientation quadrupole field applied
 Nucleus-field energy     =     0.0000000098 hartrees
 Guess MOs from core Hamiltonian diagonalization

 -----------------------------------------------------------------------
  General SCF calculation program by
  Eric Jon Sundstrom, Paul Horn, Yuezhi Mao, Dmitri Zuev, Alec White,
  David Stuck, Shaama M.S., Shane Yost, Joonho Lee, David Small,
  Daniel Levine, Susi Lehtola, Hugh Burton, Evgeny Epifanovsky
 -----------------------------------------------------------------------
 Hartree-Fock
 using 4 threads for integral computing
 -------------------------------------------------------
 OpenMP Integral computing Module                
 Release: version 2.0, May 2017, Q-Chem Inc. Pleasanton 
 -------------------------------------------------------
 A restricted SCF calculation will be
 performed using DIIS
 SCF converges when DIIS error is below 1.0e-05
 ---------------------------------------
  Cycle       Energy         DIIS error
 ---------------------------------------
    1    -317.6975961559      1.18e-01  
    2    -296.6532621453      6.20e-02  
    3    -298.4315755366      7.94e-02  
    4    -386.6508335164      4.37e-02  
    5    -406.3538014774      2.27e-02  
    6    -409.8815602040      1.65e-02  
    7    -412.4527302652      2.86e-03  
    8    -412.5540541341      1.08e-03  
    9    -412.5713949428      6.06e-04  
   10    -412.5782827419      2.50e-04  
   11    -412.5798892808      1.35e-04  
   12    -412.5802385756      5.44e-05  
   13    -412.5803257112      2.02e-05  
   14    -412.5803327738      6.00e-06  Convergence criterion met
 ---------------------------------------
 SCF time:   CPU 89.49s  wall 24.00s 
 SCF   energy in the final basis set =     -412.5803327738
 Total energy in the final basis set =     -412.5803327738

 --------------------------------------------------------------
             Orbital Energies (a.u.) and Symmetries
 --------------------------------------------------------------

 Alpha MOs, Restricted
 -- Occupied --                  
-20.550 -20.545 -15.649 -15.632 -11.427 -11.388 -11.346 -11.261
  1 A'    2 A'    3 A'    4 A'    5 A'    6 A'    7 A'    8 A'                 
 -1.442  -1.404  -1.319  -1.250  -1.093  -0.938  -0.906  -0.812
  9 A'   10 A'   11 A'   12 A'   13 A'   14 A'   15 A'   16 A'                 
 -0.770  -0.718  -0.681  -0.671  -0.657  -0.619  -0.605  -0.573
 17 A'   18 A'   19 A'    1 A"   20 A'   21 A'   22 A'    2 A"                 
 -0.528  -0.487  -0.452  -0.438  -0.371
  3 A"   23 A'   24 A'    4 A"    5 A"                                         
 -- Virtual --                   
  0.005   0.019   0.020   0.022   0.031   0.033   0.035   0.036
 25 A'   26 A'    6 A"   27 A'   28 A'   29 A'   30 A'    7 A"                 
  0.038   0.046   0.047   0.049   0.053   0.054   0.055   0.068
  8 A"   31 A'   32 A'   33 A'   34 A'    9 A"   35 A'   36 A'                 
  0.072   0.072   0.079   0.085   0.086   0.088   0.095   0.097
 10 A"   37 A'   11 A"   38 A'   12 A"   39 A'   40 A'   41 A'                 
  0.112   0.116   0.118   0.120   0.127   0.131   0.134   0.137
 13 A"   14 A"   42 A'   43 A'   44 A'   45 A'   46 A'   47 A'                 
  0.138   0.155   0.162   0.164   0.172   0.184   0.189   0.195
 48 A'   15 A"   49 A'   50 A'   16 A"   51 A'   17 A"   52 A'                 
  0.209   0.210   0.224   0.230   0.235   0.241   0.243   0.260
 53 A'   18 A"   54 A'   55 A'   56 A'   19 A"   57 A'   58 A'                 
  0.266   0.270   0.278   0.279   0.286   0.296   0.300   0.333
 59 A'   60 A'   20 A"   61 A'   62 A'   21 A"   63 A'   22 A"                 
  0.333   0.347   0.373   0.388   0.391   0.405   0.410   0.410
 64 A'   65 A'   66 A'   67 A'   68 A'   69 A'   23 A"   70 A'                 
  0.420   0.422   0.441   0.449   0.455   0.463   0.481   0.482
 24 A"   71 A'   72 A'   73 A'   74 A'   75 A'   76 A'   77 A'                 
  0.505   0.529   0.545   0.558   0.615   0.630   0.655   0.706
 78 A'   79 A'   80 A'   81 A'   82 A'   83 A'   84 A'   85 A'                 
  0.734   0.740   0.761   0.776   0.778   0.799   0.822   0.824
 86 A'   25 A"   87 A'   26 A"   88 A'   27 A"   28 A"   89 A'                 
  0.878   0.888   0.938   0.963   0.971   0.979   1.008   1.015
 90 A'   91 A'   92 A'   93 A'   94 A'   95 A'   96 A'   97 A'                 
  1.029   1.042   1.061   1.093   1.100   1.114   1.159   1.227
 98 A'   29 A"   99 A'   30 A"  100 A'  101 A'  102 A'   31 A"                 
  1.242   1.245   1.270   1.301   1.368   1.370   1.393   1.406
 32 A"  103 A'  104 A'  105 A'  106 A'   33 A"   34 A"   35 A"                 
  1.421   1.441   1.460   1.464   1.513   1.515   1.543   1.557
 36 A"  107 A'  108 A'   37 A"   38 A"  109 A'  110 A'  111 A'                 
  1.583   1.760   1.777   1.803   1.814   1.877   1.899   1.915
112 A'  113 A'  114 A'  115 A'   39 A"  116 A'   40 A"  117 A'                 
  1.929   1.952   1.980   2.013   2.014   2.067   2.124   2.143
 41 A"  118 A'  119 A'   42 A"  120 A'  121 A'  122 A'  123 A'                 
  2.186   2.223   2.236   2.283   2.299   2.339   2.357   2.532
124 A'   43 A"  125 A'  126 A'  127 A'   44 A"  128 A'  129 A'                 
  2.566   2.589   2.643   2.668   2.728   2.807   2.822   2.851
 45 A"  130 A'   46 A"  131 A'   47 A"  132 A'   48 A"  133 A'                 
  2.932   2.957   3.006   3.019   3.048   3.094   3.168   3.181
134 A'  135 A'  136 A'  137 A'  138 A'   49 A"   50 A"  139 A'                 
  3.184   3.211   3.263   3.271   3.297   3.310   3.325   3.347
 51 A"  140 A'   52 A"  141 A'  142 A'   53 A"  143 A'   54 A"                 
  3.401   3.515   3.588   3.756   3.767   3.819   3.840   3.876
144 A'  145 A'  146 A'   55 A"   56 A"  147 A'  148 A'  149 A'                 
  3.914   3.959   4.017   4.049   4.106   4.288   4.305   4.364
150 A'  151 A'  152 A'  153 A'  154 A'  155 A'   57 A"   58 A"                 
  4.411   4.485   4.605   5.012   5.158   5.288   5.441   5.553
156 A'  157 A'  158 A'  159 A'  160 A'  161 A'  162 A'  163 A'                 
  5.625   5.633   5.690   5.713   5.783   5.864   5.902   6.438
 59 A"   60 A"  164 A'  165 A'  166 A'  167 A'  168 A'  169 A'                 
  6.445   7.668   7.729   9.888   9.934  20.639  20.695  20.726
170 A'  171 A'  172 A'  173 A'  174 A'  175 A'  176 A'  177 A'                 
 20.897  30.195  30.235  40.894  40.936  80.190  80.235  80.273
178 A'  179 A'  180 A'  181 A'  182 A'  183 A'  184 A'  185 A'                 
 80.428 116.314 116.350 159.240 159.273 322.013 322.053 322.094
186 A'  187 A'  188 A'  189 A'  190 A'  191 A'  192 A'  193 A'                 
322.233 460.413 460.445 631.938 631.9651431.5641431.6041431.646
194 A'  195 A'  196 A'  197 A'  198 A'  199 A'  200 A'  201 A'                 
*******2012.8872012.9162759.3342759.3578749.7838749.8248749.866
202 A'  203 A'  204 A'  205 A'  206 A'  207 A'  208 A'  209 A'                 
***************************************
210 A'  211 A'  212 A'  213 A'  214 A'                                         

 Beta MOs, Restricted
 -- Occupied --                  
-20.550 -20.545 -15.649 -15.632 -11.427 -11.388 -11.346 -11.261
  1 A'    2 A'    3 A'    4 A'    5 A'    6 A'    7 A'    8 A'                 
 -1.442  -1.404  -1.319  -1.250  -1.093  -0.938  -0.906  -0.812
  9 A'   10 A'   11 A'   12 A'   13 A'   14 A'   15 A'   16 A'                 
 -0.770  -0.718  -0.681  -0.671  -0.657  -0.619  -0.605  -0.573
 17 A'   18 A'   19 A'    1 A"   20 A'   21 A'   22 A'    2 A"                 
 -0.528  -0.487  -0.452  -0.438  -0.371
  3 A"   23 A'   24 A'    4 A"    5 A"                                         
 -- Virtual --                   
  0.005   0.019   0.020   0.022   0.031   0.033   0.035   0.036
 25 A'   26 A'    6 A"   27 A'   28 A'   29 A'   30 A'    7 A"                 
  0.038   0.046   0.047   0.049   0.053   0.054   0.055   0.068
  8 A"   31 A'   32 A'   33 A'   34 A'    9 A"   35 A'   36 A'                 
  0.072   0.072   0.079   0.085   0.086   0.088   0.095   0.097
 10 A"   37 A'   11 A"   38 A'   12 A"   39 A'   40 A'   41 A'                 
  0.112   0.116   0.118   0.120   0.127   0.131   0.134   0.137
 13 A"   14 A"   42 A'   43 A'   44 A'   45 A'   46 A'   47 A'                 
  0.138   0.155   0.162   0.164   0.172   0.184   0.189   0.195
 48 A'   15 A"   49 A'   50 A'   16 A"   51 A'   17 A"   52 A'                 
  0.209   0.210   0.224   0.230   0.235   0.241   0.243   0.260
 53 A'   18 A"   54 A'   55 A'   56 A'   19 A"   57 A'   58 A'                 
  0.266   0.270   0.278   0.279   0.286   0.296   0.300   0.333
 59 A'   60 A'   20 A"   61 A'   62 A'   21 A"   63 A'   22 A"                 
  0.333   0.347   0.373   0.388   0.391   0.405   0.410   0.410
 64 A'   65 A'   66 A'   67 A'   68 A'   69 A'   23 A"   70 A'                 
  0.420   0.422   0.441   0.449   0.455   0.463   0.481   0.482
 24 A"   71 A'   72 A'   73 A'   74 A'   75 A'   76 A'   77 A'                 
  0.505   0.529   0.545   0.558   0.615   0.630   0.655   0.706
 78 A'   79 A'   80 A'   81 A'   82 A'   83 A'   84 A'   85 A'                 
  0.734   0.740   0.761   0.776   0.778   0.799   0.822   0.824
 86 A'   25 A"   87 A'   26 A"   88 A'   27 A"   28 A"   89 A'                 
  0.878   0.888   0.938   0.963   0.971   0.979   1.008   1.015
 90 A'   91 A'   92 A'   93 A'   94 A'   95 A'   96 A'   97 A'                 
  1.029   1.042   1.061   1.093   1.100   1.114   1.159   1.227
 98 A'   29 A"   99 A'   30 A"  100 A'  101 A'  102 A'   31 A"                 
  1.242   1.245   1.270   1.301   1.368   1.370   1.393   1.406
 32 A"  103 A'  104 A'  105 A'  106 A'   33 A"   34 A"   35 A"                 
  1.421   1.441   1.460   1.464   1.513   1.515   1.543   1.557
 36 A"  107 A'  108 A'   37 A"   38 A"  109 A'  110 A'  111 A'                 
  1.583   1.760   1.777   1.803   1.814   1.877   1.899   1.915
112 A'  113 A'  114 A'  115 A'   39 A"  116 A'   40 A"  117 A'                 
  1.929   1.952   1.980   2.013   2.014   2.067   2.124   2.143
 41 A"  118 A'  119 A'   42 A"  120 A'  121 A'  122 A'  123 A'                 
  2.186   2.223   2.236   2.283   2.299   2.339   2.357   2.532
124 A'   43 A"  125 A'  126 A'  127 A'   44 A"  128 A'  129 A'                 
  2.566   2.589   2.643   2.668   2.728   2.807   2.822   2.851
 45 A"  130 A'   46 A"  131 A'   47 A"  132 A'   48 A"  133 A'                 
  2.932   2.957   3.006   3.019   3.048   3.094   3.168   3.181
134 A'  135 A'  136 A'  137 A'  138 A'   49 A"   50 A"  139 A'                 
  3.184   3.211   3.263   3.271   3.297   3.310   3.325   3.347
 51 A"  140 A'   52 A"  141 A'  142 A'   53 A"  143 A'   54 A"                 
  3.401   3.515   3.588   3.756   3.767   3.819   3.840   3.876
144 A'  145 A'  146 A'   55 A"   56 A"  147 A'  148 A'  149 A'                 
  3.914   3.959   4.017   4.049   4.106   4.288   4.305   4.364
150 A'  151 A'  152 A'  153 A'  154 A'  155 A'   57 A"   58 A"                 
  4.411   4.485   4.605   5.012   5.158   5.288   5.441   5.553
156 A'  157 A'  158 A'  159 A'  160 A'  161 A'  162 A'  163 A'                 
  5.625   5.633   5.690   5.713   5.783   5.864   5.902   6.438
 59 A"   60 A"  164 A'  165 A'  166 A'  167 A'  168 A'  169 A'                 
  6.445   7.668   7.729   9.888   9.934  20.639  20.695  20.726
170 A'  171 A'  172 A'  173 A'  174 A'  175 A'  176 A'  177 A'                 
 20.897  30.195  30.235  40.894  40.936  80.190  80.235  80.273
178 A'  179 A'  180 A'  181 A'  182 A'  183 A'  184 A'  185 A'                 
 80.428 116.314 116.350 159.240 159.273 322.013 322.053 322.094
186 A'  187 A'  188 A'  189 A'  190 A'  191 A'  192 A'  193 A'                 
322.233 460.413 460.445 631.938 631.9651431.5641431.6041431.646
194 A'  195 A'  196 A'  197 A'  198 A'  199 A'  200 A'  201 A'                 
*******2012.8872012.9162759.3342759.3578749.7838749.8248749.866
202 A'  203 A'  204 A'  205 A'  206 A'  207 A'  208 A'  209 A'                 
***************************************
210 A'  211 A'  212 A'  213 A'  214 A'                                         
 --------------------------------------------------------------

          Ground-State Mulliken Net Atomic Charges

     Atom                 Charge (a.u.)
  ----------------------------------------
      1 C                     0.041962
      2 H                     0.361938
      3 H                     0.164085
      4 H                     0.395021
      5 C                     0.244778
      6 O                    -0.078939
      7 C                     0.021847
      8 O                    -0.117989
      9 N                    -0.604087
     10 N                    -0.410817
     11 C                    -0.261783
     12 H                     0.243984
  ----------------------------------------
  Sum of atomic charges =     0.000000

 -----------------------------------------------------------------
                    Cartesian Multipole Moments
 -----------------------------------------------------------------
    Charge (ESU x 10^10)
                 0.0000
    Dipole Moment (Debye)
         X      -1.3823      Y      -4.9563      Z      -0.0000
       Tot       5.1454
    Quadrupole Moments (Debye-Ang)
        XX     -60.6810     XY       2.5048     YY     -38.3412
        XZ       0.0000     YZ      -0.0000     ZZ     -46.9505
    Octopole Moments (Debye-Ang^2)
       XXX     -11.3535    XXY     -34.8415    XYY      -5.2027
       YYY      -9.0742    XXZ      -0.0000    XYZ       0.0000
       YYZ       0.0000    XZZ      -1.9199    YZZ       4.3262
       ZZZ      -0.0000
    Hexadecapole Moments (Debye-Ang^3)
      XXXX    -728.3306   XXXY      12.7357   XXYY    -177.0130
      XYYY      13.2601   YYYY    -304.4779   XXXZ       0.0000
      XXYZ       0.0000   XYYZ       0.0000   YYYZ      -0.0000
      XXZZ    -114.2378   XYZZ       2.9668   YYZZ     -75.7697
      XZZZ       0.0000   YZZZ      -0.0000   ZZZZ     -46.9997
 -----------------------------------------------------------------
Archival summary:
1\1\n-62-29-35\SP\HF\BasisUnspecified\2244\malop\WedJun510:13:592019WedJun510:13:592019\0\\#,HF,BasisUnspecified,\\0,1\N\H,1,1.01081\C,1,1.37966,2,115.327\O,3,1.21479,1,124.21,2,0,0\N,3,1.3852,1,112.713,2,180,0\H,5,1.00619,3,115.142,1,-180,0\C,5,1.37008,3,123.626,1,-0,0\H,7,1.07981,5,115.516,3,180,0\C,7,1.34802,5,121.979,3,-0,0\H,9,1.07615,7,121.525,5,-180,0\C,1,1.40335,2,116.035,3,-180,0\O,11,1.21832,1,120.541,2,0,0\\HF=-412.580333\\@

 Total job time:  24.25s(wall), 89.93s(cpu) 
 Wed Jun  5 10:13:59 2019

        *************************************************************
        *                                                           *
        *  Thank you very much for using Q-Chem.  Have a nice day.  *
        *                                                           *
        *************************************************************


 
User input: 2 of 2 
 
                  Welcome to Q-Chem
     A Quantum Leap Into The Future Of Chemistry


 Q-Chem 5.2 (devel), Q-Chem, Inc., Pleasanton, CA (2019)

 Yihan Shao,  Zhengting Gan,  E. Epifanovsky,  A. T. B. Gilbert,  M. Wormit,  
 J. Kussmann,  A. W. Lange,  A. Behn,  Jia Deng,  Xintian Feng,  D. Ghosh,  
 M. Goldey,  P. R. Horn,  L. D. Jacobson,  I. Kaliman,  T. Kus,  A. Landau,  
 Jie Liu,  E. I. Proynov,  R. M. Richard,  R. P. Steele,  E. J. Sundstrom,  
 H. L. Woodcock III,  P. M. Zimmerman,  D. Zuev,  B. Albrecht,  E. Alguire,  
 S. A. Baeppler,  D. Barton,  Z. Benda,  Y. A. Bernard,  E. J. Berquist,  
 K. B. Bravaya,  H. Burton,  D. Casanova,  Chun-Min Chang,  Yunqing Chen,  
 A. Chien,  K. D. Closser,  M. P. Coons,  S. Coriani,  S. Dasgupta,  
 A. L. Dempwolff,  M. Diedenhofen,  Hainam Do,  R. G. Edgar,  Po-Tung Fang,  
 S. Faraji,  S. Fatehi,  Qingguo Feng,  K. D. Fenk,  J. Fosso-Tande,  
 J. Gayvert,  Qinghui Ge,  A. Ghysels,  G. Gidofalvi,  J. Gomes,  
 J. Gonthier,  A. Gunina,  D. Hait,  M. W. D. Hanson-Heine,  
 P. H. P. Harbach,  A. W. Hauser,  M. F. Herbst,  J. E. Herr,  
 E. G. Hohenstein,  Z. C. Holden,  Kerwin Hui,  B. C. Huynh,  T.-C. Jagau,  
 Hyunjun Ji,  B. Kaduk,  K. Khistyaev,  Jaehoon Kim,  P. Klunzinger,  K. Koh,  
 D. Kosenkov,  L. Koulias,  T. Kowalczyk,  C. M. Krauter,  A. Kunitsa,  
 Ka Un Lao,  A. Laurent,  K. V. Lawler,  Joonho Lee,  D. Lefrancois,  
 S. Lehtola,  D. S. Levine,  Yi-Pei Li,  You-Sheng Lin,  Fenglai Liu,  
 E. Livshits,  A. Luenser,  P. Manohar,  E. Mansoor,  S. F. Manzer,  
 Shan-Ping Mao,  Yuezhi Mao,  N. Mardirossian,  A. V. Marenich,  
 T. Markovich,  L. A. Martinez-Martinez,  S. A. Maurer,  N. J. Mayhall,  
 S. C. McKenzie,  J.-M. Mewes,  P. Morgante,  A. F. Morrison,  
 J. W. Mullinax,  K. Nanda,  T. S. Nguyen-Beck,  R. Olivares-Amaya,  
 J. A. Parkhill,  Zheng Pei,  T. M. Perrine,  F. Plasser,  P. Pokhilko,  
 S. Prager,  A. Prociuk,  E. Ramos,  D. R. Rehn,  F. Rob,  M. Scheurer,  
 M. Schneider,  N. Sergueev,  S. M. Sharada,  S. Sharma,  D. W. Small,  
 T. Stauch,  T. Stein,  Yu-Chuan Su,  A. J. W. Thom,  A. Tkatchenko,  
 T. Tsuchimochi,  N. M. Tubman,  L. Vogt,  M. L. Vidal,  O. Vydrov,  
 M. A. Watson,  J. Wenzel,  M. de Wergifosse,  T. A. Wesolowski,  A. White,  
 J. Witte,  A. Yamada,  Jun Yang,  K. Yao,  S. Yeganeh,  S. R. Yost,  
 Zhi-Qiang You,  A. Zech,  Igor Ying Zhang,  Xing Zhang,  Yan Zhao,  
 Ying Zhu,  B. R. Brooks,  G. K. L. Chan,  C. J. Cramer,  M. S. Gordon,  
 W. J. Hehre,  A. Klamt,  M. W. Schmidt,  C. D. Sherrill,  D. G. Truhlar,  
 A. Aspuru-Guzik,  R. Baer,  A. T. Bell,  N. A. Besley,  Jeng-Da Chai,  
 A. E. DePrince, III,  R. A. DiStasio Jr.,  A. Dreuw,  B. D. Dunietz,  
 T. R. Furlani,  Chao-Ping Hsu,  Yousung Jung,  Jing Kong,  D. S. Lambrecht,  
 WanZhen Liang,  C. Ochsenfeld,  V. A. Rassolov,  L. V. Slipchenko,  
 J. E. Subotnik,  T. Van Voorhis,  J. M. Herbert,  A. I. Krylov,  
 P. M. W. Gill,  M. Head-Gordon

 Contributors to earlier versions of Q-Chem not listed above: 
 R. D. Adamson,  B. Austin,  J. Baker,  G. J. O. Beran,  K. Brandhorst,  
 S. T. Brown,  E. F. C. Byrd,  A. K. Chakraborty,  C.-L. Cheng,  
 Siu Hung Chien,  D. M. Chipman,  D. L. Crittenden,  H. Dachsel,  
 R. J. Doerksen,  A. D. Dutoi,  L. Fusti-Molnar,  W. A. Goddard III,  
 A. Golubeva-Zadorozhnaya,  S. R. Gwaltney,  G. Hawkins,  A. Heyden,  
 S. Hirata,  G. Kedziora,  F. J. Keil,  C. Kelley,  Jihan Kim,  R. A. King,  
 R. Z. Khaliullin,  P. P. Korambath,  W. Kurlancheek,  A. M. Lee,  M. S. Lee,  
 S. V. Levchenko,  Ching Yeh Lin,  D. Liotard,  R. C. Lochan,  I. Lotan,  
 P. E. Maslen,  N. Nair,  D. P. O'Neill,  D. Neuhauser,  E. Neuscamman,  
 C. M. Oana,  R. Olson,  B. Peters,  R. Peverati,  P. A. Pieniazek,  
 Y. M. Rhee,  J. Ritchie,  M. A. Rohrdanz,  E. Rosta,  N. J. Russ,  
 H. F. Schaefer III,  N. E. Schultz,  N. Shenvi,  A. C. Simmonett,  A. Sodt,  
 D. Stuck,  K. S. Thanthiriwatte,  V. Vanovschi,  Tao Wang,  A. Warshel,  
 C. F. Williams,  Q. Wu,  X. Xu,  W. Zhang

 Please cite Q-Chem as follows:
 Y. Shao et al., Mol. Phys. 113, 184-215 (2015)
 DOI: 10.1080/00268976.2014.952696

 Q-Chem 5.2.0 for Intel X86 EM64T Linux

 Parts of Q-Chem use Armadillo 8.300.2 (Tropical Shenanigans).
 http://arma.sourceforge.net/

 Q-Chem begins on Wed Jun  5 10:13:59 2019  

n-62-29-35
Host: 0

     Scratch files written to /work1/malop/qc_8384526.hnode2/qchem15792//
NAlpha2: 60
NElect   58
Mult     3

Checking the input file for inconsistencies... 	...done.

--------------------------------------------------------------
User input:
--------------------------------------------------------------

$molecule
0 3
C        0.052842   -1.701332    0.000000
H       -2.016793   -1.512231    0.000000
H       -0.025494   -2.778299    0.000000
H       -0.023568    1.988544    0.000000
C       -1.232948    0.358893    0.000000
O       -2.294123    0.950188    0.000000
C        1.274970    0.391620    0.000000
O        2.275873    1.086244    0.000000
N        0.000000    0.978006    0.000000
N       -1.137535   -1.023018    0.000000
C        1.239239   -1.061325    0.000000
H        2.169983   -1.601520    0.000000
$end

$rem
   JOB_TYPE  =  SP
   BASIS  = general
   print_general_basis = true
   SCF_GUESS read
   mom_start = 1
   METHOD  =  EOM-CCSD
   CVS_IP_STATES = [4,0]
   !eom_davidson_convergence = 4
   cvs_eom_shift = 10500
   n_frozen_core = fc
   cc_trans_prop = true
   cc_memory = 40000
   cc_do_dyson = true
   MOLDEN_FORMAT = TRUE
$end

$basis
H    0
6-311(2+,+)G**
****
O    0
S    1    1.000000
   8.58850000E+03    1.89515000E-03
S    1    1.000000
   1.29723000E+03    1.43859000E-02
S    1    1.000000
   2.99296000E+02    7.07320000E-02
S    1    1.000000
   8.73771000E+01    2.40001000E-01
S    1    1.000000
   2.56789000E+01    5.94797000E-01
S    1    1.000000
   3.74004000E+00    2.80802000E-01
SP   3    1.000000
   4.21175000E+01    1.13889000E-01   3.65114000E-02
   9.62837000E+00    9.20811000E-01   2.37153000E-01
   2.85332000E+00   -3.27447000E-03   8.19702000E-01
SP   1    1.000000
   9.05661000E-01    1.00000000E+00   1.00000000E+00
SP   1    1.000000
   2.55611000E-01    1.00000000E+00   1.00000000E+00
SP   1    1.000000
   8.45000000E-02    1.00000000E+00   1.00000000E+00
SP   1    1.000000
   2.54518072E-02    1.00000000E+00   1.00000000E+00
D    1    1.000000
   1.29200000E+00    1.00000000E+00
****
N    0
S    1    1.000000
   6.29348000E+03    1.96979000E-03
S    1    1.000000
   9.49044000E+02    1.49613000E-02
S    1    1.000000
   2.18776000E+02    7.35006000E-02
S    1    1.000000
   6.36916000E+01    2.48937000E-01
S    1    1.000000
   1.88282000E+01    6.02460000E-01
S    1    1.000000
   2.72023000E+00    2.56202000E-01
SP   3    1.000000
   3.06331000E+01    1.11906000E-01   3.83119000E-02
   7.02614000E+00    9.21666000E-01   2.37403000E-01
   2.11205000E+00   -2.56919000E-03   8.17592000E-01
SP   1    1.000000
   6.84009000E-01    1.00000000E+00   1.00000000E+00
SP   1    1.000000
   2.00878000E-01    1.00000000E+00   1.00000000E+00
SP   1    1.000000
   6.39000000E-02    1.00000000E+00   1.00000000E+00
SP   1    1.000000
   1.92469880E-02    1.00000000E+00   1.00000000E+00
D    1    1.000000
   9.13000000E-01    1.00000000E+00
****
C    0
S    1    1.000000
   4.56324000E+03    1.96665000E-03
S    1    1.000000
   6.82024000E+02    1.52306000E-02
S    1    1.000000
   1.54973000E+02    7.61269000E-02
S    1    1.000000
   4.44553000E+01    2.60801000E-01
S    1    1.000000
   1.30290000E+01    6.16462000E-01
S    1    1.000000
   1.82773000E+00    2.21006000E-01
SP   3    1.000000
   2.09642000E+01    1.14660000E-01   4.02487000E-02
   4.80331000E+00    9.19999000E-01   2.37594000E-01
   1.45933000E+00   -3.03068000E-03   8.15854000E-01
SP   1    1.000000
   4.83456000E-01    1.00000000E+00   1.00000000E+00
SP   1    1.000000
   1.45585000E-01    1.00000000E+00   1.00000000E+00
SP   1    1.000000
   4.38000000E-02    1.00000000E+00   1.00000000E+00
SP   1    1.000000
   1.31927711E-02    1.00000000E+00   1.00000000E+00
D    1    1.000000
   6.26000000E-01    1.00000000E+00
****
$end
--------------------------------------------------------------
 ----------------------------------------------------------------
             Standard Nuclear Orientation (Angstroms)
    I     Atom           X                Y                Z
 ----------------------------------------------------------------
    1      C      -0.0071423615    -1.7021374661    -0.0000000000
    2      H      -2.0688284730    -1.4402241233     0.0000000000
    3      H      -0.1233798667    -2.7756752113     0.0000000000
    4      H       0.0465189185     1.9881394681    -0.0000000000
    5      C      -1.2195356258     0.4021166886     0.0000000000
    6      O      -2.2592155329     1.0304381418     0.0000000000
    7      C       1.2879780632     0.3464493659    -0.0000000000
    8      O       2.3127366072     1.0053721559    -0.0000000000
    9      N       0.0344629504     0.9773985746    -0.0000000000
   10      N      -1.1728776526    -0.9822982369     0.0000000000
   11      C       1.2010703878    -1.1043341925    -0.0000000000
   12      H       2.1122009607    -1.6769912546    -0.0000000000
 ----------------------------------------------------------------
 Molecular Point Group                 Cs    NOp =  2
 Largest Abelian Subgroup              Cs    NOp =  2
 Nuclear Repulsion Energy =         357.01163035 hartrees
 There are       30 alpha and       28 beta electrons
 Requested basis set is non-standard
Basis set in general basis input format:
-----------------------------------------------------------------------
$basis
C    0
S    1    1.000000
   4.56324000E+03    1.96665000E-03 
S    1    1.000000
   6.82024000E+02    1.52306000E-02 
S    1    1.000000
   1.54973000E+02    7.61269000E-02 
S    1    1.000000
   4.44553000E+01    2.60801000E-01 
S    1    1.000000
   1.30290000E+01    6.16462000E-01 
S    1    1.000000
   1.82773000E+00    2.21006000E-01 
SP   3    1.000000
   2.09642000E+01    1.14660000E-01   4.02487000E-02 
   4.80331000E+00    9.19999000E-01   2.37594000E-01 
   1.45933000E+00   -3.03068000E-03   8.15854000E-01 
SP   1    1.000000
   4.83456000E-01    1.00000000E+00   1.00000000E+00 
SP   1    1.000000
   1.45585000E-01    1.00000000E+00   1.00000000E+00 
SP   1    1.000000
   4.38000000E-02    1.00000000E+00   1.00000000E+00 
SP   1    1.000000
   1.31927711E-02    1.00000000E+00   1.00000000E+00 
D    1    1.000000
   6.26000000E-01    1.00000000E+00 
****
H    0
S    3    1.000000
   3.38650000E+01    2.54938000E-02 
   5.09479000E+00    1.90373000E-01 
   1.15879000E+00    8.52161000E-01 
S    1    1.000000
   3.25840000E-01    1.00000000E+00 
S    1    1.000000
   1.02741000E-01    1.00000000E+00 
S    1    1.000000
   3.60000000E-02    1.00000000E+00 
P    1    1.000000
   7.50000000E-01    1.00000000E+00 
****
H    0
S    3    1.000000
   3.38650000E+01    2.54938000E-02 
   5.09479000E+00    1.90373000E-01 
   1.15879000E+00    8.52161000E-01 
S    1    1.000000
   3.25840000E-01    1.00000000E+00 
S    1    1.000000
   1.02741000E-01    1.00000000E+00 
S    1    1.000000
   3.60000000E-02    1.00000000E+00 
P    1    1.000000
   7.50000000E-01    1.00000000E+00 
****
H    0
S    3    1.000000
   3.38650000E+01    2.54938000E-02 
   5.09479000E+00    1.90373000E-01 
   1.15879000E+00    8.52161000E-01 
S    1    1.000000
   3.25840000E-01    1.00000000E+00 
S    1    1.000000
   1.02741000E-01    1.00000000E+00 
S    1    1.000000
   3.60000000E-02    1.00000000E+00 
P    1    1.000000
   7.50000000E-01    1.00000000E+00 
****
C    0
S    1    1.000000
   4.56324000E+03    1.96665000E-03 
S    1    1.000000
   6.82024000E+02    1.52306000E-02 
S    1    1.000000
   1.54973000E+02    7.61269000E-02 
S    1    1.000000
   4.44553000E+01    2.60801000E-01 
S    1    1.000000
   1.30290000E+01    6.16462000E-01 
S    1    1.000000
   1.82773000E+00    2.21006000E-01 
SP   3    1.000000
   2.09642000E+01    1.14660000E-01   4.02487000E-02 
   4.80331000E+00    9.19999000E-01   2.37594000E-01 
   1.45933000E+00   -3.03068000E-03   8.15854000E-01 
SP   1    1.000000
   4.83456000E-01    1.00000000E+00   1.00000000E+00 
SP   1    1.000000
   1.45585000E-01    1.00000000E+00   1.00000000E+00 
SP   1    1.000000
   4.38000000E-02    1.00000000E+00   1.00000000E+00 
SP   1    1.000000
   1.31927711E-02    1.00000000E+00   1.00000000E+00 
D    1    1.000000
   6.26000000E-01    1.00000000E+00 
****
O    0
S    1    1.000000
   8.58850000E+03    1.89515000E-03 
S    1    1.000000
   1.29723000E+03    1.43859000E-02 
S    1    1.000000
   2.99296000E+02    7.07320000E-02 
S    1    1.000000
   8.73771000E+01    2.40001000E-01 
S    1    1.000000
   2.56789000E+01    5.94797000E-01 
S    1    1.000000
   3.74004000E+00    2.80802000E-01 
SP   3    1.000000
   4.21175000E+01    1.13889000E-01   3.65114000E-02 
   9.62837000E+00    9.20811000E-01   2.37153000E-01 
   2.85332000E+00   -3.27447000E-03   8.19702000E-01 
SP   1    1.000000
   9.05661000E-01    1.00000000E+00   1.00000000E+00 
SP   1    1.000000
   2.55611000E-01    1.00000000E+00   1.00000000E+00 
SP   1    1.000000
   8.45000000E-02    1.00000000E+00   1.00000000E+00 
SP   1    1.000000
   2.54518072E-02    1.00000000E+00   1.00000000E+00 
D    1    1.000000
   1.29200000E+00    1.00000000E+00 
****
C    0
S    1    1.000000
   4.56324000E+03    1.96665000E-03 
S    1    1.000000
   6.82024000E+02    1.52306000E-02 
S    1    1.000000
   1.54973000E+02    7.61269000E-02 
S    1    1.000000
   4.44553000E+01    2.60801000E-01 
S    1    1.000000
   1.30290000E+01    6.16462000E-01 
S    1    1.000000
   1.82773000E+00    2.21006000E-01 
SP   3    1.000000
   2.09642000E+01    1.14660000E-01   4.02487000E-02 
   4.80331000E+00    9.19999000E-01   2.37594000E-01 
   1.45933000E+00   -3.03068000E-03   8.15854000E-01 
SP   1    1.000000
   4.83456000E-01    1.00000000E+00   1.00000000E+00 
SP   1    1.000000
   1.45585000E-01    1.00000000E+00   1.00000000E+00 
SP   1    1.000000
   4.38000000E-02    1.00000000E+00   1.00000000E+00 
SP   1    1.000000
   1.31927711E-02    1.00000000E+00   1.00000000E+00 
D    1    1.000000
   6.26000000E-01    1.00000000E+00 
****
O    0
S    1    1.000000
   8.58850000E+03    1.89515000E-03 
S    1    1.000000
   1.29723000E+03    1.43859000E-02 
S    1    1.000000
   2.99296000E+02    7.07320000E-02 
S    1    1.000000
   8.73771000E+01    2.40001000E-01 
S    1    1.000000
   2.56789000E+01    5.94797000E-01 
S    1    1.000000
   3.74004000E+00    2.80802000E-01 
SP   3    1.000000
   4.21175000E+01    1.13889000E-01   3.65114000E-02 
   9.62837000E+00    9.20811000E-01   2.37153000E-01 
   2.85332000E+00   -3.27447000E-03   8.19702000E-01 
SP   1    1.000000
   9.05661000E-01    1.00000000E+00   1.00000000E+00 
SP   1    1.000000
   2.55611000E-01    1.00000000E+00   1.00000000E+00 
SP   1    1.000000
   8.45000000E-02    1.00000000E+00   1.00000000E+00 
SP   1    1.000000
   2.54518072E-02    1.00000000E+00   1.00000000E+00 
D    1    1.000000
   1.29200000E+00    1.00000000E+00 
****
N    0
S    1    1.000000
   6.29348000E+03    1.96979000E-03 
S    1    1.000000
   9.49044000E+02    1.49613000E-02 
S    1    1.000000
   2.18776000E+02    7.35006000E-02 
S    1    1.000000
   6.36916000E+01    2.48937000E-01 
S    1    1.000000
   1.88282000E+01    6.02460000E-01 
S    1    1.000000
   2.72023000E+00    2.56202000E-01 
SP   3    1.000000
   3.06331000E+01    1.11906000E-01   3.83119000E-02 
   7.02614000E+00    9.21666000E-01   2.37403000E-01 
   2.11205000E+00   -2.56919000E-03   8.17592000E-01 
SP   1    1.000000
   6.84009000E-01    1.00000000E+00   1.00000000E+00 
SP   1    1.000000
   2.00878000E-01    1.00000000E+00   1.00000000E+00 
SP   1    1.000000
   6.39000000E-02    1.00000000E+00   1.00000000E+00 
SP   1    1.000000
   1.92469880E-02    1.00000000E+00   1.00000000E+00 
D    1    1.000000
   9.13000000E-01    1.00000000E+00 
****
N    0
S    1    1.000000
   6.29348000E+03    1.96979000E-03 
S    1    1.000000
   9.49044000E+02    1.49613000E-02 
S    1    1.000000
   2.18776000E+02    7.35006000E-02 
S    1    1.000000
   6.36916000E+01    2.48937000E-01 
S    1    1.000000
   1.88282000E+01    6.02460000E-01 
S    1    1.000000
   2.72023000E+00    2.56202000E-01 
SP   3    1.000000
   3.06331000E+01    1.11906000E-01   3.83119000E-02 
   7.02614000E+00    9.21666000E-01   2.37403000E-01 
   2.11205000E+00   -2.56919000E-03   8.17592000E-01 
SP   1    1.000000
   6.84009000E-01    1.00000000E+00   1.00000000E+00 
SP   1    1.000000
   2.00878000E-01    1.00000000E+00   1.00000000E+00 
SP   1    1.000000
   6.39000000E-02    1.00000000E+00   1.00000000E+00 
SP   1    1.000000
   1.92469880E-02    1.00000000E+00   1.00000000E+00 
D    1    1.000000
   9.13000000E-01    1.00000000E+00 
****
C    0
S    1    1.000000
   4.56324000E+03    1.96665000E-03 
S    1    1.000000
   6.82024000E+02    1.52306000E-02 
S    1    1.000000
   1.54973000E+02    7.61269000E-02 
S    1    1.000000
   4.44553000E+01    2.60801000E-01 
S    1    1.000000
   1.30290000E+01    6.16462000E-01 
S    1    1.000000
   1.82773000E+00    2.21006000E-01 
SP   3    1.000000
   2.09642000E+01    1.14660000E-01   4.02487000E-02 
   4.80331000E+00    9.19999000E-01   2.37594000E-01 
   1.45933000E+00   -3.03068000E-03   8.15854000E-01 
SP   1    1.000000
   4.83456000E-01    1.00000000E+00   1.00000000E+00 
SP   1    1.000000
   1.45585000E-01    1.00000000E+00   1.00000000E+00 
SP   1    1.000000
   4.38000000E-02    1.00000000E+00   1.00000000E+00 
SP   1    1.000000
   1.31927711E-02    1.00000000E+00   1.00000000E+00 
D    1    1.000000
   6.26000000E-01    1.00000000E+00 
****
H    0
S    3    1.000000
   3.38650000E+01    2.54938000E-02 
   5.09479000E+00    1.90373000E-01 
   1.15879000E+00    8.52161000E-01 
S    1    1.000000
   3.25840000E-01    1.00000000E+00 
S    1    1.000000
   1.02741000E-01    1.00000000E+00 
S    1    1.000000
   3.60000000E-02    1.00000000E+00 
P    1    1.000000
   7.50000000E-01    1.00000000E+00 
****
$end
-----------------------------------------------------------------------
 There are 116 shells and 276 basis functions
 WARNING: the default MEM_TOTAL is adjusted according to given MEM_STATIC!
 Total memory of 40192 MB is distributed as follows: 
   MEM_STATIC is set to 192 MB
   QALLOC/CCMAN JOB total memory use is  40000 MB
 Warning: actual memory use might exceed 40192 MB

 Total QAlloc Memory Limit  40192 MB
 Mega-Array Size       188 MB
 MEM_STATIC part       192 MB

                       Distance Matrix (Angstroms)
             C (  1)   H (  2)   H (  3)   H (  4)   C (  5)   O (  6)
   H (  2)  2.078256
   H (  3)  1.079812  2.359703
   H (  4)  3.690667  4.028445  4.766843
   C (  5)  2.428535  2.028674  3.361535  2.029375
   O (  6)  3.541017  2.477987  4.364435  2.496718  1.214793
   C (  7)  2.423643  3.802677  3.426309  2.058244  2.508132  3.612537
   O (  8)  3.565452  5.017873  4.497886  2.470136  3.583415  4.572021
   N (  9)  2.679859  3.204487  3.756392  1.010813  1.379660  2.294292
   N ( 10)  1.370076  1.006193  2.077895  3.210986  1.385201  2.287190
   C ( 11)  1.348016  3.287105  2.132498  3.300967  2.851092  4.065813
   H ( 12)  2.119492  4.187728  2.490969  4.207164  3.927233  5.141931
             C (  7)   O (  8)   N (  9)   N ( 10)   C ( 11)
   O (  8)  1.218322
   N (  9)  1.403352  2.278445
   N ( 10)  2.796673  4.012523  2.301756
   C ( 11)  1.453384  2.384672  2.386333  2.377083
   H ( 12)  2.184870  2.689849  3.370872  3.357728  1.076148

 A cutoff of  1.0D-14 yielded   5442 shell pairs
 There are     35779 function pairs (     37954 Cartesian)
 Smallest overlap matrix eigenvalue = 2.79E-07
 Linear dependence detected in AO basis
 Tighter screening thresholds may be required for diffuse basis sets
 Use S2THRESH > 14 and THRESH = 14 in case of SCF convergence issues
 Number of orthogonalized atomic orbitals = 274
 Maximum deviation from orthogonality = 1.662E-10

 Scale SEOQF with 1.000000e-01/1.000000e-01/1.000000e-01

 Standard Electronic Orientation quadrupole field applied
 Nucleus-field energy     =     0.0000000098 hartrees
 Guess MOs from SCF MO coefficient file

 -----------------------------------------------------------------------
  General SCF calculation program by
  Eric Jon Sundstrom, Paul Horn, Yuezhi Mao, Dmitri Zuev, Alec White,
  David Stuck, Shaama M.S., Shane Yost, Joonho Lee, David Small,
  Daniel Levine, Susi Lehtola, Hugh Burton, Evgeny Epifanovsky
 -----------------------------------------------------------------------
 Hartree-Fock
 using 4 threads for integral computing
 -------------------------------------------------------
 OpenMP Integral computing Module                
 Release: version 2.0, May 2017, Q-Chem Inc. Pleasanton 
 -------------------------------------------------------
 A unrestricted SCF calculation will be
 performed using DIIS
 SCF converges when DIIS error is below 1.0e-08
 ---------------------------------------
  Cycle       Energy         DIIS error
 ---------------------------------------
Maximum Overlap Method Active
 MOM overlap:    29.9 / 30
Maximum Overlap Method Active
 MOM overlap:    28.0 / 28
    1    -412.2991602698      8.85e-04  
Maximum Overlap Method Active
 MOM overlap:    29.99 / 30
Maximum Overlap Method Active
 MOM overlap:    28.00 / 28
    2    -412.3540450324      4.49e-04  
Maximum Overlap Method Active
 MOM overlap:    29.99 / 30
Maximum Overlap Method Active
 MOM overlap:    28.00 / 28
    3    -412.3676340990      1.80e-04  
Maximum Overlap Method Active
 MOM overlap:    29.99 / 30
Maximum Overlap Method Active
 MOM overlap:    28.00 / 28
    4    -412.3738586628      1.27e-04  
Maximum Overlap Method Active
 MOM overlap:    30.00 / 30
Maximum Overlap Method Active
 MOM overlap:    28.00 / 28
    5    -412.3773729788      7.09e-05  
Maximum Overlap Method Active
 MOM overlap:    30.00 / 30
Maximum Overlap Method Active
 MOM overlap:    28.00 / 28
    6    -412.3789548907      4.90e-05  
Maximum Overlap Method Active
 MOM overlap:    30.00 / 30
Maximum Overlap Method Active
 MOM overlap:    28.00 / 28
    7    -412.3796826001      3.80e-05  
Maximum Overlap Method Active
 MOM overlap:    30.00 / 30
Maximum Overlap Method Active
 MOM overlap:    28.00 / 28
    8    -412.3803028778      3.11e-05  
Maximum Overlap Method Active
 MOM overlap:    30.00 / 30
Maximum Overlap Method Active
 MOM overlap:    28.00 / 28
    9    -412.3809296523      2.47e-05  
Maximum Overlap Method Active
 MOM overlap:    30.00 / 30
Maximum Overlap Method Active
 MOM overlap:    28.00 / 28
   10    -412.3815422236      1.42e-05  
Maximum Overlap Method Active
 MOM overlap:    30.00 / 30
Maximum Overlap Method Active
 MOM overlap:    28.00 / 28
   11    -412.3817048932      9.07e-06  
Maximum Overlap Method Active
 MOM overlap:    30.00 / 30
Maximum Overlap Method Active
 MOM overlap:    28.00 / 28
   12    -412.3817440671      7.09e-06  
Maximum Overlap Method Active
 MOM overlap:    30.00 / 30
Maximum Overlap Method Active
 MOM overlap:    28.00 / 28
   13    -412.3817774957      6.33e-06  
Maximum Overlap Method Active
 MOM overlap:    30.00 / 30
Maximum Overlap Method Active
 MOM overlap:    28.00 / 28
   14    -412.3818018234      5.81e-06  
Maximum Overlap Method Active
 MOM overlap:    30.00 / 30
Maximum Overlap Method Active
 MOM overlap:    28.00 / 28
   15    -412.3818348211      5.21e-06  
Maximum Overlap Method Active
 MOM overlap:    30.00 / 30
Maximum Overlap Method Active
 MOM overlap:    28.00 / 28
   16    -412.3818719599      4.62e-06  
Maximum Overlap Method Active
 MOM overlap:    30.00 / 30
Maximum Overlap Method Active
 MOM overlap:    28.00 / 28
   17    -412.3818975751      4.12e-06  
Maximum Overlap Method Active
 MOM overlap:    30.00 / 30
Maximum Overlap Method Active
 MOM overlap:    28.00 / 28
   18    -412.3819105061      3.87e-06  
Maximum Overlap Method Active
 MOM overlap:    30.00 / 30
Maximum Overlap Method Active
 MOM overlap:    28.00 / 28
   19    -412.3819310437      3.30e-06  
Maximum Overlap Method Active
 MOM overlap:    30.00 / 30
Maximum Overlap Method Active
 MOM overlap:    28.00 / 28
   20    -412.3819562938      2.36e-06  
Maximum Overlap Method Active
 MOM overlap:    30.00 / 30
Maximum Overlap Method Active
 MOM overlap:    28.00 / 28
   21    -412.3819670569      1.53e-06  
Maximum Overlap Method Active
 MOM overlap:    30.00 / 30
Maximum Overlap Method Active
 MOM overlap:    28.00 / 28
   22    -412.3819710818      9.92e-07  
Maximum Overlap Method Active
 MOM overlap:    30.00 / 30
Maximum Overlap Method Active
 MOM overlap:    28.00 / 28
   23    -412.3819722796      5.07e-07  
Maximum Overlap Method Active
 MOM overlap:    30.00 / 30
Maximum Overlap Method Active
 MOM overlap:    28.00 / 28
   24    -412.3819726111      2.73e-07  
Maximum Overlap Method Active
 MOM overlap:    30.00 / 30
Maximum Overlap Method Active
 MOM overlap:    28.00 / 28
   25    -412.3819726586      1.19e-07  
Maximum Overlap Method Active
 MOM overlap:    30.00 / 30
Maximum Overlap Method Active
 MOM overlap:    28.00 / 28
   26    -412.3819726650      6.45e-08  
Maximum Overlap Method Active
 MOM overlap:    30.00 / 30
Maximum Overlap Method Active
 MOM overlap:    28.00 / 28
   27    -412.3819726686      2.97e-08  
Maximum Overlap Method Active
 MOM overlap:    30.00 / 30
Maximum Overlap Method Active
 MOM overlap:    28.00 / 28
   28    -412.3819726687      1.46e-08  
   29    -412.3819726690      8.17e-09  Convergence criterion met
Maximum Overlap Method Active
 MOM overlap:    30.00 / 30
Maximum Overlap Method Active
 MOM overlap:    28.00 / 28
Maximum Overlap Method Active
 MOM overlap:    30.00 / 30
Maximum Overlap Method Active
 MOM overlap:    28.00 / 28
 ---------------------------------------
 SCF time:   CPU 296.66s  wall 79.00s 
<S^2> =          2.275127068
 SCF   energy in the final basis set =     -412.3819726690
 Total energy in the final basis set =     -412.3819726690


 ------------------------------------------------------------------------------

   CCMAN2: suite of methods based on coupled cluster
           and equation of motion theories.

   Components:
   * libvmm-1.3-trunk
     by Evgeny Epifanovsky, Ilya Kaliman.
   * libtensor-2.5-trunk
     by Evgeny Epifanovsky, Michael Wormit, Dmitry Zuev, Sam Manzer, 
        Ilya Kaliman.
   * libcc-2.5-trunk
     by Evgeny Epifanovsky, Arik Landau, Tomasz Kus, Kirill Khistyaev, 
        Dmitry Zuev, Prashant Manohar, Xintian Feng, Anna Krylov, 
        Matthew Goldey, Alec White, Thomas Jagau, Kaushik Nanda, 
        Anastasia Gunina, Alexander Kunitsa, Joonho Lee.

   CCMAN original authors:
   Anna I. Krylov, C. David Sherrill, Steven R. Gwaltney,
   Edward F. C. Byrd (2000)
   Sergey V. Levchenko, Lyudmila V. Slipchenko, Tao Wang,
   Ana-Maria C. Cristian (2003)
   Piotr A. Pieniazek, C. Melania Oana, Evgeny Epifanovsky (2007)
   Prashant Manohar (2009)

 ------------------------------------------------------------------------------


 Allocating and initializing 40000MB of RAM...
 Calculation will run on 4 cores.


 Alpha MOs, Unrestricted
 -- Occupied --                  
-20.656 -20.653 -15.790 -15.693 -11.494 -11.455 -11.421 -11.386
  1 A'    2 A'    3 A'    4 A'    5 A'    6 A'    7 A'    8 A'                 
 -1.536  -1.508  -1.432  -1.328  -1.210  -1.022  -0.987  -0.908
  9 A'   10 A'   11 A'   12 A'   13 A'   14 A'   15 A'   16 A'                 
 -0.861  -0.788  -0.772  -0.772  -0.749  -0.714  -0.692  -0.689
 17 A'   18 A'   19 A'    1 A"   20 A'   21 A'   22 A'    2 A"                 
 -0.641  -0.581  -0.552  -0.544  -0.523  -0.122
  3 A"   23 A'   24 A'    4 A"    5 A"   25 A'                                 
 -- Virtual --                   
  0.005   0.008   0.009   0.018   0.023   0.025   0.028   0.032
 26 A'    6 A"   27 A'    7 A"   28 A'   29 A'   30 A'    8 A"                 
  0.032   0.038   0.042   0.046   0.048   0.049   0.052   0.055
  9 A"   31 A'   32 A'   33 A'   34 A'   35 A'   10 A"   36 A'                 
  0.060   0.060   0.067   0.072   0.074   0.077   0.080   0.091
 11 A"   37 A'   38 A'   12 A"   39 A'   13 A"   40 A'   41 A'                 
  0.092   0.104   0.105   0.106   0.113   0.117   0.125   0.130
 14 A"   42 A'   15 A"   43 A'   44 A'   45 A'   46 A'   47 A'                 
  0.133   0.139   0.142   0.143   0.160   0.164   0.173   0.178
 48 A'   49 A'   50 A'   16 A"   17 A"   51 A'   52 A'   18 A"                 
  0.190   0.197   0.201   0.213   0.215   0.220   0.230   0.237
 53 A'   54 A'   55 A'   19 A"   56 A'   57 A'   20 A"   58 A'                 
  0.240   0.245   0.249   0.251   0.263   0.274   0.295   0.297
 59 A'   60 A'   21 A"   61 A'   62 A'   63 A'   64 A'   22 A"                 
  0.314   0.324   0.343   0.354   0.359   0.362   0.376   0.379
 65 A'   66 A'   67 A'   23 A"   68 A'   69 A'   24 A"   70 A'                 
  0.382   0.396   0.403   0.413   0.419   0.431   0.439   0.456
 71 A'   72 A'   73 A'   74 A'   75 A'   76 A'   77 A'   78 A'                 
  0.474   0.505   0.506   0.574   0.576   0.586   0.649   0.660
 79 A'   80 A'   81 A'   82 A'   83 A'   84 A'   85 A'   25 A"                 
  0.676   0.696   0.722   0.728   0.731   0.752   0.766   0.823
 86 A'   87 A'   26 A"   88 A'   27 A"   89 A'   28 A"   90 A'                 
  0.836   0.880   0.895   0.900   0.934   0.937   0.952   0.955
 91 A'   92 A'   93 A'   94 A'   95 A'   96 A'   97 A'   29 A"                 
  0.960   0.990   1.032   1.034   1.044   1.088   1.141   1.151
 98 A'   99 A'   30 A"  100 A'  101 A'  102 A'   31 A"   32 A"                 
  1.189   1.204   1.236   1.282   1.306   1.306   1.323   1.349
103 A'  104 A'  105 A'   33 A"  106 A'   34 A"   35 A"   36 A"                 
  1.369   1.390   1.391   1.440   1.440   1.476   1.478   1.513
107 A'   37 A"  108 A'   38 A"  109 A'  110 A'  111 A'  112 A'                 
  1.680   1.696   1.732   1.743   1.806   1.822   1.838   1.865
113 A'  114 A'  115 A'   39 A"  116 A'   40 A"  117 A'   41 A"                 
  1.874   1.909   1.939   1.944   1.994   2.051   2.076   2.118
118 A'  119 A'  120 A'   42 A"  121 A'  122 A'  123 A'  124 A'                 
  2.121   2.163   2.213   2.228   2.244   2.282   2.451   2.479
 43 A"  125 A'  126 A'  127 A'   44 A"  128 A'  129 A'   45 A"                 
  2.510   2.567   2.591   2.635   2.725   2.745   2.768   2.863
130 A'   46 A"  131 A'   47 A"   48 A"  132 A'  133 A'  134 A'                 
  2.883   2.931   2.943   2.984   2.988   3.094   3.111   3.121
135 A'  136 A'  137 A'  138 A'   49 A"   50 A"   51 A"  139 A'                 
  3.128   3.161   3.195   3.195   3.212   3.231   3.235   3.315
140 A'   52 A"  141 A'  142 A'   53 A"  143 A'   54 A"  144 A'                 
  3.440   3.496   3.658   3.664   3.731   3.757   3.791   3.828
145 A'  146 A'   55 A"   56 A"  147 A'  148 A'  149 A'  150 A'                 
  3.875   3.935   3.965   4.024   4.174   4.200   4.292   4.320
151 A'  152 A'  153 A'  154 A'   57 A"  155 A'   58 A"  156 A'                 
  4.402   4.513   4.931   5.072   5.207   5.345   5.472   5.508
157 A'  158 A'  159 A'  160 A'  161 A'  162 A'  163 A'   59 A"                 
  5.519   5.599   5.630   5.686   5.769   5.813   6.347   6.353
 60 A"  164 A'  165 A'  166 A'  167 A'  168 A'  169 A'  170 A'                 
  7.556   7.651   9.786   9.833  20.561  20.615  20.646  20.800
171 A'  172 A'  173 A'  174 A'  175 A'  176 A'  177 A'  178 A'                 
 30.069  30.167  40.793  40.833  80.116  80.155  80.192  80.329
179 A'  180 A'  181 A'  182 A'  183 A'  184 A'  185 A'  186 A'                 
116.190 116.283 159.141 159.173 321.941 321.975 322.013 322.134
187 A'  188 A'  189 A'  190 A'  191 A'  192 A'  193 A'  194 A'                 
460.292 460.379 631.841 631.8671431.4931431.5271431.5651431.671
195 A'  196 A'  197 A'  198 A'  199 A'  200 A'  201 A'  202 A'                 
*******2012.8512759.2382759.2608749.7128749.7488749.7858749.876
203 A'  204 A'  205 A'  206 A'  207 A'  208 A'  209 A'  210 A'                 
*******************************
211 A'  212 A'  213 A'  214 A'                                                 

 Beta MOs, Unrestricted
 -- Occupied --                  
-20.640 -20.639 -15.766 -15.695 -11.500 -11.463 -11.428 -11.369
  1 A'    2 A'    3 A'    4 A'    5 A'    6 A'    7 A'    8 A'                 
 -1.514  -1.475  -1.388  -1.317  -1.165  -1.020  -0.981  -0.889
  9 A'   10 A'   11 A'   12 A'   13 A'   14 A'   15 A'   16 A'                 
 -0.854  -0.783  -0.757  -0.736  -0.726  -0.701  -0.684  -0.612
 17 A'   18 A'   19 A'   20 A'    1 A"   21 A'   22 A'    2 A"                 
 -0.564  -0.555  -0.532  -0.459
 23 A'    3 A"   24 A'    4 A"                                                 
 -- Virtual --                   
 -0.116   0.004   0.013   0.016   0.020   0.028   0.031   0.032
  5 A"   25 A'   26 A'    6 A"   27 A'   28 A'   29 A'    7 A"                 
  0.035   0.035   0.040   0.045   0.047   0.049   0.051   0.054
 30 A'    8 A"    9 A"   31 A'   32 A'   33 A'   34 A'   35 A'                 
  0.056   0.063   0.064   0.067   0.074   0.083   0.086   0.087
 10 A"   36 A'   11 A"   37 A'   38 A'   12 A"   39 A'   40 A'                 
  0.088   0.095   0.100   0.106   0.110   0.117   0.120   0.124
 13 A"   41 A'   14 A"   42 A'   43 A'   44 A'   45 A'   15 A"                 
  0.131   0.135   0.140   0.143   0.155   0.156   0.169   0.174
 46 A'   47 A'   48 A'   49 A'   50 A'   16 A"   51 A'   17 A"                 
  0.182   0.184   0.197   0.206   0.209   0.213   0.220   0.224
 52 A'   18 A"   53 A'   54 A'   55 A'   19 A"   56 A'   57 A'                 
  0.240   0.242   0.248   0.250   0.257   0.259   0.266   0.286
 58 A'   59 A'   60 A'   20 A"   61 A'   21 A"   62 A'   63 A'                 
  0.297   0.313   0.322   0.334   0.344   0.356   0.365   0.377
 64 A'   22 A"   65 A'   66 A'   67 A'   68 A'   69 A'   23 A"                 
  0.385   0.388   0.390   0.394   0.406   0.417   0.422   0.435
 70 A'   71 A'   24 A"   72 A'   73 A'   74 A'   75 A'   76 A'                 
  0.441   0.459   0.476   0.509   0.511   0.575   0.580   0.601
 77 A'   78 A'   79 A'   80 A'   81 A'   82 A'   83 A'   84 A'                 
  0.653   0.680   0.683   0.697   0.707   0.729   0.742   0.758
 85 A'   25 A"   86 A'   87 A'   26 A"   88 A'   27 A"   28 A"                 
  0.760   0.825   0.847   0.882   0.899   0.905   0.936   0.940
 89 A'   90 A'   91 A'   92 A'   93 A'   94 A'   95 A'   96 A'                 
  0.953   0.965   0.997   0.997   1.034   1.044   1.046   1.092
 97 A'   98 A'   99 A'   29 A"  100 A'   30 A"  101 A'  102 A'                 
  1.157   1.163   1.193   1.213   1.238   1.302   1.310   1.336
 31 A"   32 A"  103 A'  104 A'  105 A'   33 A"  106 A'   34 A"                 
  1.353   1.364   1.373   1.397   1.398   1.436   1.446   1.482
 35 A"   36 A"  107 A'   37 A"  108 A'   38 A"  109 A'  110 A'                 
  1.488   1.518   1.685   1.699   1.736   1.748   1.810   1.825
111 A'  112 A'  113 A'  114 A'  115 A'   39 A"  116 A'   40 A"                 
  1.844   1.863   1.877   1.914   1.942   1.948   1.992   2.055
117 A'   41 A"  118 A'  119 A'  120 A'   42 A"  121 A'  122 A'                 
  2.076   2.119   2.140   2.164   2.221   2.231   2.260   2.283
123 A'  124 A'   43 A"  125 A'  126 A'  127 A'   44 A"  128 A'                 
  2.457   2.491   2.516   2.576   2.595   2.655   2.744   2.747
129 A'   45 A"  130 A'   46 A"  131 A'   47 A"   48 A"  132 A'                 
  2.773   2.868   2.897   2.935   2.948   2.988   3.012   3.083
133 A'  134 A'  135 A'  136 A'  137 A'  138 A'   49 A"   50 A"                 
  3.106   3.124   3.139   3.189   3.202   3.226   3.237   3.255
 51 A"  139 A'  140 A'   52 A"  141 A'  142 A'   53 A"  143 A'                 
  3.267   3.327   3.444   3.500   3.685   3.692   3.737   3.760
 54 A"  144 A'  145 A'  146 A'   55 A"   56 A"  147 A'  148 A'                 
  3.796   3.833   3.880   3.938   3.969   4.027   4.208   4.228
149 A'  150 A'  151 A'  152 A'  153 A'  154 A'  155 A'   57 A"                 
  4.293   4.329   4.406   4.518   4.932   5.076   5.212   5.353
 58 A"  156 A'  157 A'  158 A'  159 A'  160 A'  161 A'  162 A'                 
  5.469   5.557   5.563   5.603   5.633   5.695   5.775   5.816
163 A'   59 A"   60 A"  164 A'  165 A'  166 A'  167 A'  168 A'                 
  6.354   6.360   7.577   7.653   9.802   9.848  20.559  20.614
169 A'  170 A'  171 A'  172 A'  173 A'  174 A'  175 A'  176 A'                 
 20.643  20.802  30.081  30.167  40.800  40.841  80.115  80.155
177 A'  178 A'  179 A'  180 A'  181 A'  182 A'  183 A'  184 A'                 
 80.191  80.330 116.195 116.282 159.143 159.175 321.940 321.974
185 A'  186 A'  187 A'  188 A'  189 A'  190 A'  191 A'  192 A'                 
322.013 322.134 460.294 460.379 631.842 631.8681431.4931431.527
193 A'  194 A'  195 A'  196 A'  197 A'  198 A'  199 A'  200 A'                 
*******1431.6712012.7692012.8512759.2382759.2608749.7128749.748
201 A'  202 A'  203 A'  204 A'  205 A'  206 A'  207 A'  208 A'                 
*******8749.876********************************
209 A'  210 A'  211 A'  212 A'  213 A'  214 A'                                 

 Occupation and symmetry of molecular orbitals

 Point group: Cs (2 irreducible representations).

                           A'   A"    All 
 ------------------------------------------
 All molecular orbitals:
  - Alpha                  214  60    274 
  - Beta                   214  60    274 
 ------------------------------------------
 Alpha orbitals:
  - Frozen occupied        8    0     8   
  - Active occupied        17   5     22  
  - Active virtual         189  55    244 
  - Frozen virtual         0    0     0   
 ------------------------------------------
 Beta orbitals:
  - Frozen occupied        8    0     8   
  - Active occupied        16   4     20  
  - Active virtual         190  56    246 
  - Frozen virtual         0    0     0   
 ------------------------------------------

 Import integrals:   CPU 0.00 s  wall 0.00 s

 Import integrals:   CPU 1332.39 s  wall 455.56 s

 MP2 amplitudes:   CPU 2.42 s  wall 1.15 s

Running a double precision version
           CCSD T amplitudes will be solved using DIIS.

           Start     Size      MaxIter   EConv     TConv     
           3         7         100       1.00e-06  1.00e-04  
 ------------------------------------------------------------------------------
           Energy (a.u.)   Ediff      Tdiff       Comment
 ------------------------------------------------------------------------------
          -413.62508814                           
     1    -413.60644872   1.86e-02   9.81e-01     Step took 01.10.
     2    -413.65259989   4.62e-02   1.30e-01     
     3    -413.65198301   6.17e-04   5.45e-02     
     4    -413.65826376   6.28e-03   2.05e-02     Switched to DIIS steps.
     5    -413.66302033   4.76e-03   2.31e-02     
     6    -413.66402650   1.01e-03   7.23e-03     
     7    -413.66438255   3.56e-04   4.75e-03     
     8    -413.66447078   8.82e-05   1.66e-03     
     9    -413.66452266   5.19e-05   1.30e-03     
    10    -413.66451626   6.40e-06   7.21e-04     
    11    -413.66451149   4.77e-06   3.60e-04     
    12    -413.66451197   4.78e-07   2.35e-04     
    13    -413.66450890   3.07e-06   7.41e-05     
    14    -413.66450929   3.92e-07   6.70e-05     
 ------------------------------------------------------------------------------
          -413.66450929                           CCSD T converged.

End of double precision
 SCF energy                 = -412.38197267
 MP2 energy                 = -413.62508814
 CCSD correlation energy    =   -1.28253662
 CCSD total energy          = -413.66450929

 CCSD  T1^2 = 0.0994  T2^2 = 0.4263  Leading amplitudes:

 Amplitude    Orbitals with energies
  0.0811       25 (A') A                 ->    26 (A') A                  
              -0.1222                          0.0048                     
 -0.0762       2 (A") A                  ->    13 (A") A                  
              -0.6888                          0.0768                     
 -0.0719       25 (A') A                 ->    31 (A') A                  
              -0.1222                          0.0382                     
 -0.0660       4 (A") B                  ->    9 (A") B                   
              -0.4593                          0.0401                     

 Amplitude    Orbitals with energies
  0.0257       5 (A") A      4 (A") B    ->    13 (A") A     5 (A") B     
              -0.5233       -0.4593            0.0768       -0.1162       
 -0.0257       5 (A") A      4 (A") B    ->    5 (A") B      13 (A") A    
              -0.5233       -0.4593           -0.1162        0.0768       
 -0.0257       4 (A") B      5 (A") A    ->    13 (A") A     5 (A") B     
              -0.4593       -0.5233            0.0768       -0.1162       
  0.0257       4 (A") B      5 (A") A    ->    5 (A") B      13 (A") A    
              -0.4593       -0.5233           -0.1162        0.0768       

 Computing CCSD intermediates for later calculations in double precision
 Finished.

Running a double precision version
           CCSD Lambda amplitudes will be solved using DIIS.
           Start     Size      MaxIter   EConv     LConv     
           3         7         100       1.00e-06  1.00e-04  
 ------------------------------------------------------------------------------
            Enorm      Ldiff       Comment
 ------------------------------------------------------------------------------
     1     8.23e-02   4.80e-02     
     2     2.62e-02   7.55e-03     
     3     1.32e-02   9.77e-04     
     4     7.03e-03   1.53e-03     Switched to DIIS steps.
     5     2.92e-03   9.34e-04     
     6     1.81e-03   1.98e-04     
     7     9.54e-04   5.58e-05     
     8     5.47e-04   2.72e-05     
     9     2.89e-04   4.67e-05     
    10     1.85e-04   3.13e-05     
    11     1.14e-04   2.49e-05     
    12     5.93e-05   2.08e-05     
    13     3.67e-05   6.20e-06     
    14     2.19e-05   3.89e-06     
    15     1.39e-05   7.54e-07     
    16     1.01e-05   1.41e-08     
    17     6.66e-06   4.76e-09     
    18     4.58e-06   1.59e-07     
    19     2.75e-06   9.28e-09     
    20     1.80e-06   1.48e-08     
    21     1.14e-06   1.87e-08     
    22     7.16e-07   1.05e-08     
 ------------------------------------------------------------------------------
                                   CCSD Lambda converged.

 CCSD calculation:   CPU 7610.99 s  wall 3582.75 s

        Solving for CVS-EOMIP-CCSD A' transitions.

Running a double precision version
      CVS-EOMIP-CCSD/MP2 right amplitudes will be solved using Davidson.
        Amplitudes will be solved using shifted  algorithm.
     Hard-coded thresholds: 
     LinDepThresh=1.00e-15  NormThresh=1.00e-06  ReorthogonThresh=1.00e-02

      Roots     MaxVec    MaxIter   Precond   Conv      Shift    
      4         120       60        1         1.00e-05  1.05e+01  
 ------------------------------------------------------------------------------
      Iter ConvRoots NVecs ResNorm Current eigenvalues (eV)
 ------------------------------------------------------------------------------
      0    0      4     9.72e-01   309.3932   310.1939   311.0703   311.9678   
      1    0      8     2.22e+00   306.6238   307.3916   308.2509   309.1400   
      2    0      12    2.78e-02   295.9109   296.4063   297.6907   298.6486   
      3    0      16    1.98e-03   295.4559   295.9477   297.3027   298.2647   
      4    0      20    3.79e-04   295.4040   295.9200   297.2816   298.2467   
      5    1      24    1.99e-05   295.3923   295.9151   297.2785   298.2441*  
      6    4      27    6.05e-06   295.3915*  295.9150*  297.2787*  298.2441*  

     Davidson procedure converged

 EOMIP transition 1/A'
 Total energy = -402.80907000 a.u.  Excitation energy = 295.3915 eV.
 R1^2 = 0.8810  R2_CCVV^2 = 0.0018  R2_COVV^2 = 0.1181  Res^2 = 9.00e-06
 Conv-d = yes

 Amplitude    Transitions between orbitals
  0.9383       8 (A') A                  ->    infty        
  0.0233       7 (A') A                  ->    infty        
 -0.0014       6 (A') A                  ->    infty        

              Summary of significant orbitals:

               Number  Type             Irrep      Energy
               6       Occ  Alpha       6 (A')    -11.4546
               7       Occ  Alpha       7 (A')    -11.4206
               8       Occ  Alpha       8 (A')    -11.3860


 EOMIP transition 2/A'
 Total energy = -402.78983124 a.u.  Excitation energy = 295.9150 eV.
 R1^2 = 0.8809  R2_CCVV^2 = 0.0018  R2_COVV^2 = 0.1182  Res^2 = 4.48e-06
 Conv-d = yes

 Amplitude    Transitions between orbitals
  0.9382       7 (A') A                  ->    infty        
 -0.0247       8 (A') A                  ->    infty        

              Summary of significant orbitals:

               Number  Type             Irrep      Energy
               7       Occ  Alpha       7 (A')    -11.4206
               8       Occ  Alpha       8 (A')    -11.3860


 EOMIP transition 3/A'
 Total energy = -402.73971724 a.u.  Excitation energy = 297.2787 eV.
 R1^2 = 0.8928  R2_CCVV^2 = 0.0018  R2_COVV^2 = 0.1063  Res^2 = 2.32e-06
 Conv-d = yes

 Amplitude    Transitions between orbitals
 -0.9449       6 (A') A                  ->    infty        
 -0.0012       8 (A') A                  ->    infty        
  0.0001       5 (A') A                  ->    infty        

              Summary of significant orbitals:

               Number  Type             Irrep      Energy
               5       Occ  Alpha       5 (A')    -11.4936
               6       Occ  Alpha       6 (A')    -11.4546
               8       Occ  Alpha       8 (A')    -11.3860


 EOMIP transition 4/A'
 Total energy = -402.70424089 a.u.  Excitation energy = 298.2441 eV.
 R1^2 = 0.8940  R2_CCVV^2 = 0.0018  R2_COVV^2 = 0.1051  Res^2 = 8.41e-06
 Conv-d = yes

 Amplitude    Transitions between orbitals
 -0.9455       5 (A') A                  ->    infty        
 -0.0001       6 (A') A                  ->    infty        

              Summary of significant orbitals:

               Number  Type             Irrep      Energy
               5       Occ  Alpha       5 (A')    -11.4936
               6       Occ  Alpha       6 (A')    -11.4546


Running a double precision version
      CVS-EOMIP-CCSD/MP2 left amplitudes will be solved using Davidson.
        Amplitudes will be solved using MOM  algorithm.
     Hard-coded thresholds: 
     LinDepThresh=1.00e-15  NormThresh=1.00e-06  ReorthogonThresh=1.00e-02

      Roots     MaxVec    MaxIter   Precond   Conv      Shift    
      4         120       60        1         1.00e-05  1.05e+01  
 ------------------------------------------------------------------------------
      Iter ConvRoots NVecs ResNorm Current eigenvalues (eV)
 ------------------------------------------------------------------------------
      0    0      4     1.40e-02   296.1582   296.7270   298.0135   298.9609   
      1    0      8     5.16e-01   295.4347   295.9459   297.3051   298.2943   
      2    0      12    2.21e-02   295.3850   295.9133   297.2732   298.2323   
      3    0      16    1.21e-03   295.3990   295.9194   297.2817   298.2491   
      4    2      20    1.15e-05   295.3900   295.9143   297.2774*  298.2429*  
      5    2      22    7.90e-06   295.3909   295.9150   297.2774*  298.2429*  
      6    4      24    3.46e-06   295.3913*  295.9152*  297.2774*  298.2429*  

     Davidson procedure converged

 CVS-EOMIP-CCSD calculation:   CPU 84.11 s  wall 48.23 s


 Reference -- EOM-IP-CCSD state  1/A'   transition
 Energy difference = 295.3915 eV.

 Left Dyson orbital norm is 0.921619

Left alpha Dyson orbital in the MO basis (canonical Q-Chem's ordering):
0     -1.0192e-06
1     2.8579e-08
2     3.6329e-06
3     -1.9686e-06
4     -3.2711e-05
5     -1.4262e-03
6     2.6374e-02
7     9.9965e-01
8     4.9071e-16
9     3.0804e-16
10    1.8695e-16
11    7.2065e-17
12    -1.0950e-16
13    2.5306e-16
14    2.8764e-16
15    1.0702e-16
16    -1.7247e-17
17    2.9993e-16
18    3.0251e-16
19    -1.3600e-17
20    1.1575e-16
21    -1.4803e-16
22    1.1604e-17
23    1.3592e-16
24    4.9621e-17
25    4.7420e-17
26    3.8831e-16
27    1.8127e-16
28    -8.9358e-17
29    3.6836e-16
30    -1.1837e-15
31    -1.2923e-16
32    -1.2868e-15
33    5.7059e-16
34    4.6169e-15
35    2.1694e-15
36    -4.1862e-16
37    4.1321e-16
38    -2.4630e-16
39    3.2850e-15
40    -2.3072e-15
41    -3.9757e-15
42    -1.4979e-15
43    -1.7061e-15
44    3.8106e-15
45    1.1064e-14
46    -1.1289e-15
47    1.1038e-14
48    -5.7719e-15
49    2.7199e-15
50    -4.8575e-15
51    4.1688e-16
52    2.5723e-15
53    -1.2949e-14
54    8.1920e-16
55    -2.1094e-15
56    -2.3753e-15
57    3.2168e-15
58    -1.7819e-14
59    2.7024e-15
60    -6.1583e-15
61    1.0622e-14
62    -4.5730e-15
63    3.6507e-15
64    -2.4490e-14
65    -3.8378e-15
66    4.0608e-15
67    5.0041e-15
68    -3.5826e-15
69    1.1540e-15
70    -2.0772e-16
71    2.9996e-15
72    7.0924e-15
73    -2.4070e-16
74    -4.3133e-15
75    -6.8730e-15
76    -1.8222e-15
77    1.2934e-14
78    -4.3680e-15
79    -9.6701e-16
80    2.3776e-16
81    6.9239e-15
82    2.6796e-14
83    2.4820e-15
84    -2.6655e-15
85    -8.2532e-15
86    -1.1287e-15
87    4.1343e-15
88    1.6714e-16
89    -1.0725e-15
90    -7.1875e-15
91    -2.1404e-15
92    1.5227e-16
93    3.5237e-15
94    5.9455e-15
95    -2.3387e-15
96    -7.8772e-15
97    2.1326e-15
98    -6.7304e-15
99    3.3950e-15
100   1.3561e-14
101   -9.7619e-15
102   5.0430e-15
103   8.3877e-15
104   -5.4801e-15
105   1.9294e-14
106   7.3472e-16
107   -7.1175e-15
108   -6.1221e-15
109   -1.5419e-15
110   -7.7319e-15
111   4.7904e-15
112   -2.3743e-16
113   -2.2473e-15
114   -9.9737e-17
115   -4.6737e-15
116   1.6842e-15
117   8.0884e-15
118   -5.5888e-15
119   -4.0393e-15
120   2.5757e-15
121   8.9944e-16
122   -2.4264e-15
123   6.4546e-16
124   -1.0216e-16
125   -1.4940e-15
126   8.4824e-16
127   -3.8521e-15
128   -4.6158e-15
129   -6.0511e-15
130   -1.3236e-17
131   -1.8415e-15
132   5.0748e-16
133   -1.7397e-16
134   -4.3160e-15
135   -6.5659e-15
136   -3.5263e-15
137   -1.7638e-16
138   3.5449e-15
139   -7.2495e-16
140   -1.7034e-16
141   -2.4816e-16
142   1.3757e-15
143   2.4501e-16
144   -1.4894e-15
145   -3.1507e-17
146   -7.4497e-17
147   8.6174e-15
148   -1.0950e-15
149   2.5199e-16
150   2.8645e-15
151   6.2241e-17
152   7.1750e-16
153   -6.4858e-17
154   5.5975e-15
155   -9.9875e-16
156   2.0210e-15
157   -7.1189e-16
158   2.1818e-16
159   1.7687e-15
160   9.6167e-16
161   -1.3518e-16
162   -1.9355e-16
163   -8.2212e-16
164   -6.4796e-16
165   -2.0837e-15
166   -4.1394e-16
167   6.5035e-16
168   8.5662e-17
169   -1.3716e-15
170   -1.7367e-16
171   -2.5191e-15
172   2.8546e-15
173   -6.4470e-16
174   8.3555e-16
175   2.5024e-16
176   8.2503e-17
177   -1.2064e-16
178   2.2969e-16
179   1.2535e-15
180   -8.2953e-16
181   -1.9072e-15
182   -1.0844e-15
183   1.4041e-15
184   -1.7907e-15
185   -6.7083e-16
186   -6.3060e-16
187   1.1016e-15
188   3.9278e-16
189   -2.2859e-15
190   -8.9194e-16
191   -3.4133e-16
192   -1.9186e-16
193   3.0740e-15
194   4.5090e-16
195   1.7162e-15
196   5.2707e-16
197   -1.6797e-15
198   -2.0026e-15
199   3.5213e-16
200   -6.1375e-16
201   1.0756e-16
202   2.5411e-15
203   8.5929e-16
204   6.4251e-16
205   -2.1890e-16
206   -1.7531e-15
207   -1.5941e-15
208   1.5222e-15
209   -1.7471e-16
210   -1.3725e-15
211   2.8582e-15
212   2.3705e-15
213   -5.9429e-16
214   1.6657e-16
215   6.1656e-16
216   -2.0928e-15
217   -4.3925e-15
218   3.6799e-16
219   9.3160e-16
220   6.4041e-16
221   -5.4710e-16
222   5.6924e-16
223   -3.1339e-16
224   3.4849e-15
225   -9.4236e-16
226   -2.7806e-16
227   7.1837e-16
228   2.0720e-15
229   -4.7775e-15
230   4.3499e-16
231   4.5607e-16
232   -2.3466e-15
233   1.6378e-15
234   1.1960e-15
235   -1.2393e-15
236   2.7550e-16
237   6.6551e-16
238   -6.8156e-16
239   1.9725e-16
240   1.6858e-15
241   1.3901e-15
242   -1.6641e-16
243   -5.5237e-16
244   -1.5816e-17
245   -2.4159e-16
246   -1.5160e-15
247   -3.8219e-16
248   4.7460e-16
249   9.7247e-16
250   2.9180e-16
251   -1.4094e-15
252   -5.5609e-16
253   9.8914e-16
254   1.2335e-16
255   -3.8131e-16
256   7.5142e-17
257   6.6473e-18
258   4.7512e-16
259   -1.7621e-15
260   5.9382e-16
261   4.8538e-16
262   -1.7014e-15
263   1.4148e-16
264   9.7940e-16
265   1.2706e-15
266   2.5347e-16
267   1.1778e-15
268   -1.0003e-15
269   -1.7437e-16
270   1.2849e-15
271   1.6167e-16
272   2.7815e-16
273   6.6233e-16

Decomposition over AOs for the left alpha Dyson orbital:
5.48574095e-05
4.24743902e-04
2.11853240e-03
7.27542967e-03
1.71754288e-02
6.34096117e-03
2.30968544e-02
-1.70585584e-04
-2.51723522e-05
1.45903774e-16
-5.38533906e-04
-6.61249895e-04
-4.11943535e-04
2.75321920e-15
2.61343347e-05
4.71469144e-05
1.42046193e-04
1.56438955e-15
3.29886300e-03
2.84669921e-04
1.13237643e-03
-5.59147726e-14
2.73239154e-04
-6.11204109e-05
1.73627978e-04
6.25026002e-14
-3.09823588e-04
5.33366322e-16
7.90948205e-05
-1.69613221e-15
-2.26026572e-04
-4.87024532e-06
-3.21191943e-05
1.90002667e-05
-2.11914956e-05
-1.16341574e-05
3.49592039e-06
1.65872433e-15
-5.46253799e-06
-7.25877873e-05
2.43959800e-04
3.15797108e-04
-3.78511372e-05
-4.49671734e-05
4.20560051e-16
-8.83880660e-06
-3.45207515e-05
1.26377901e-05
-3.26583857e-05
-3.51501103e-06
9.87663359e-06
3.88726828e-16
-7.56922765e-08
-6.03397802e-07
-2.88448885e-06
-1.03910286e-05
-1.99276460e-05
1.10044324e-05
-4.30664618e-05
3.72544813e-06
[...]
208   2.2509e-15
209   2.7206e-15
210   4.7277e-16
211   -3.5717e-15
212   5.0318e-16
213   -1.6150e-15
214   -1.2135e-15
215   1.6312e-15
216   1.0423e-15
217   -2.0894e-15
218   -1.0903e-15
219   1.3216e-15
220   1.0203e-16
221   -1.6654e-16
222   1.2329e-16
223   -1.5513e-15
224   1.1765e-15
225   -1.0884e-15
226   -9.8116e-16
227   2.4705e-16
228   -2.1573e-15
229   -7.6191e-16
230   7.7855e-16
231   -2.9856e-16
232   3.0584e-16
233   -5.2429e-16
234   -9.5996e-16
235   -1.7537e-15
236   -8.9056e-16
237   9.2245e-17
238   3.3119e-17
239   -1.2560e-15
240   -7.3579e-17
241   3.3352e-16
242   -2.9031e-15
243   -1.0670e-15
244   -5.6648e-16
245   6.0121e-16
246   -2.0427e-16
247   9.2018e-16
248   -6.4431e-16
249   2.8313e-16
250   -6.8443e-16
251   -5.0423e-16
252   -1.9172e-16
253   6.3574e-16
254   2.0666e-16
255   6.6167e-16
256   3.3776e-16
257   5.5838e-17
258   3.8462e-16
259   -6.9652e-16
260   8.6271e-16
261   -8.6871e-17
262   -6.0713e-16
263   9.7137e-17
264   2.1921e-16
265   6.4438e-16
266   8.4931e-17
267   8.3579e-16
268   -5.7088e-16
269   8.1326e-17
270   4.5362e-16
271   -9.2822e-17
272   3.1925e-16
273   3.7119e-16

Decomposition over AOs for the right alpha Dyson orbital:
2.05700499e-07
1.57968527e-06
7.96806202e-06
2.70380602e-05
6.80984776e-05
4.86413669e-05
7.32600647e-05
-1.72729120e-05
8.54503491e-06
-2.87487658e-15
-5.76079315e-05
9.19507579e-05
-3.03291520e-05
-6.68041698e-15
1.92828932e-04
-6.67788787e-05
8.27387252e-05
-4.68612262e-15
-4.33041611e-03
-6.59692354e-04
-1.72875438e-03
-1.73548428e-14
-3.46417975e-04
2.40894117e-04
-1.52192859e-04
-5.54940335e-14
6.07707392e-05
-5.96750682e-16
-1.64311868e-05
3.26087865e-16
-2.61174871e-07
-3.79423127e-05
1.18345679e-05
-4.25067467e-05
2.07201664e-05
-3.77171530e-05
-1.50715494e-05
-2.01788457e-15
-1.28918994e-05
-1.60720963e-09
-5.99076667e-07
-1.15069289e-03
6.82344707e-06
-9.07727037e-06
-1.37879142e-15
-3.14368427e-05
-5.26959101e-05
1.79489223e-04
-3.53812481e-06
1.94331691e-05
5.19453685e-05
1.79136472e-15
-1.10965958e-03
-8.59038369e-03
-4.28542183e-02
-1.47125311e-01
-3.47588968e-01
-1.26292229e-01
-4.65602859e-01
-5.73050787e-04
7.35995354e-04
1.14545367e-16
-1.45969421e-03
6.30523505e-04
-7.03653338e-04
3.96054059e-15
-1.87302119e-03
-4.80620595e-04
3.71356215e-04
-6.00189899e-15
5.69881051e-04
9.62699538e-04
-2.69458962e-04
2.00527400e-14
9.82164831e-04
4.98496432e-05
-1.16463771e-04
3.27423760e-14
2.54759111e-04
2.56349234e-15
3.75241676e-04
4.55079471e-17
-2.19309536e-04
3.81966877e-07
2.80691906e-06
1.46628942e-05
4.70050829e-05
1.39218074e-04
1.82099627e-04
2.00714014e-04
-2.12983004e-04
1.27120250e-04
1.28719540e-15
-5.95346242e-04
-5.35787110e-04
3.16983359e-04
1.73336272e-15
3.00215627e-04
2.82665111e-04
-1.55053391e-04
3.90745406e-15
-1.92725276e-04
-3.30260133e-04
1.41086917e-04
1.29806459e-15
9.68690258e-04
1.34568933e-04
-1.30268802e-04
-2.24378114e-14
2.42186516e-04
-2.71723658e-16
1.16779994e-04
8.03886326e-17
-1.25924764e-04
3.49542044e-07
2.68817018e-06
1.35349206e-05
4.59899109e-05
1.13810867e-04
6.50383877e-05
1.32019877e-04
-1.88505684e-05
2.27727168e-06
1.76432361e-15
-3.72386984e-05
5.64690199e-05
-6.20183400e-06
2.10062440e-15
-1.15995293e-04
-3.29655236e-04
-2.25714307e-06
6.82615698e-15
-4.10129355e-03
5.77640013e-04
1.08600638e-03
-4.28296073e-14
-8.46289890e-04
1.59193190e-04
1.31876830e-04
-1.71605132e-14
8.28769067e-06
2.16949012e-15
-5.37008624e-06
9.25877449e-16
-4.02942901e-05
1.54283138e-09
-1.12195697e-09
8.78417129e-08
-5.09138315e-08
3.21730699e-06
1.24270189e-05
-6.70729033e-06
-1.77249016e-06
-7.78938779e-07
2.13787711e-15
-3.14015863e-05
2.24739856e-05
1.59716188e-06
4.49256396e-15
9.60295515e-05
-5.14256560e-05
-5.23657373e-05
1.64663635e-15
5.69616428e-04
-2.05371313e-04
-1.16205409e-04
1.26732344e-14
-5.50682893e-05
-1.66533780e-05
-1.31174960e-04
1.58110279e-14
2.83308555e-06
-1.54772866e-16
-9.06946379e-07
-5.28557878e-16
-5.86721656e-06
3.03580968e-07
2.19694982e-06
1.17001242e-05
3.66151033e-05
1.19451668e-04
2.02547721e-04
9.99657559e-05
7.93688734e-05
4.49248533e-05
1.39431162e-15
-5.21943167e-04
5.67550849e-04
2.73316376e-04
5.00700260e-15
2.83306949e-04
-3.09999703e-04
-6.81646792e-05
-1.05936579e-16
1.20454274e-04
-3.87554298e-04
-3.44390411e-04
2.03422043e-14
-3.22583180e-04
2.40920854e-04
6.21697131e-05
-7.22181043e-15
-2.12520654e-04
1.42364622e-16
7.46124452e-05
8.82122953e-17
-1.87592345e-04
2.92809256e-07
2.07771425e-06
1.13815646e-05
3.45234153e-05
1.24262057e-04
2.42698789e-04
7.08705703e-05
-9.16701910e-06
-8.22877676e-05
-2.31350325e-15
-5.84449057e-04
3.89886500e-05
-7.43645614e-04
-5.69592285e-15
2.05165839e-04
1.13688472e-05
2.07766095e-04
-6.55319825e-16
1.11226337e-03
-3.97855592e-05
4.29766522e-04
-8.61347808e-15
3.83797138e-04
2.64393118e-04
-2.16942616e-04
3.26950711e-14
2.94916611e-05
8.36730564e-16
1.06578119e-04
-5.92559683e-16
3.35133163e-04
8.76885259e-08
6.49389233e-07
3.45214491e-06
1.10318682e-05
3.39514336e-05
4.54984543e-05
1.74996299e-05
-8.76588554e-06
2.35110980e-06
-2.59672817e-15
-8.35231997e-05
7.05100099e-05
-1.40281014e-05
-3.25774483e-15
1.04788170e-05
7.54284206e-05
1.40473498e-05
-7.38713504e-15
6.96724466e-03
-1.19552791e-03
7.28735513e-04
2.91081654e-14
7.44099299e-05
-5.18545330e-05
1.06503947e-04
4.22866032e-14
-2.61447039e-05
1.12447445e-15
-3.21459738e-06
1.26504407e-15
-4.78077962e-06
-6.03053193e-06
-4.60311084e-05
1.48500367e-05
1.64172656e-04
1.30052795e-05
-7.78383654e-06
-1.08744593e-15
   *****

     End transition

 Dyson orbitals calculation:   CPU 0.29 s  wall 0.17 s

 Total ccman2 time:   CPU 9066.91 s  wall 4099.55 s


 --------------------------------------------------------------
             Orbital Energies (a.u.) and Symmetries
 --------------------------------------------------------------

 Alpha MOs, Unrestricted
 -- Occupied --                  
-20.656 -20.653 -15.790 -15.693 -11.494 -11.455 -11.421 -11.386
  1 A'    2 A'    3 A'    4 A'    5 A'    6 A'    7 A'    8 A'                 
 -1.536  -1.508  -1.432  -1.328  -1.210  -1.022  -0.987  -0.908
  9 A'   10 A'   11 A'   12 A'   13 A'   14 A'   15 A'   16 A'                 
 -0.861  -0.788  -0.772  -0.772  -0.749  -0.714  -0.692  -0.689
 17 A'   18 A'   19 A'    1 A"   20 A'   21 A'   22 A'    2 A"                 
 -0.641  -0.581  -0.552  -0.544  -0.523  -0.122
  3 A"   23 A'   24 A'    4 A"    5 A"   25 A'                                 
 -- Virtual --                   
  0.005   0.008   0.009   0.018   0.023   0.025   0.028   0.032
 26 A'    6 A"   27 A'    7 A"   28 A'   29 A'   30 A'    8 A"                 
  0.032   0.038   0.042   0.046   0.048   0.049   0.052   0.055
  9 A"   31 A'   32 A'   33 A'   34 A'   35 A'   10 A"   36 A'                 
  0.060   0.060   0.067   0.072   0.074   0.077   0.080   0.091
 11 A"   37 A'   38 A'   12 A"   39 A'   13 A"   40 A'   41 A'                 
  0.092   0.104   0.105   0.106   0.113   0.117   0.125   0.130
 14 A"   42 A'   15 A"   43 A'   44 A'   45 A'   46 A'   47 A'                 
  0.133   0.139   0.142   0.143   0.160   0.164   0.173   0.178
 48 A'   49 A'   50 A'   16 A"   17 A"   51 A'   52 A'   18 A"                 
  0.190   0.197   0.201   0.213   0.215   0.220   0.230   0.237
 53 A'   54 A'   55 A'   19 A"   56 A'   57 A'   20 A"   58 A'                 
  0.240   0.245   0.249   0.251   0.263   0.274   0.295   0.297
 59 A'   60 A'   21 A"   61 A'   62 A'   63 A'   64 A'   22 A"                 
  0.314   0.324   0.343   0.354   0.359   0.362   0.376   0.379
 65 A'   66 A'   67 A'   23 A"   68 A'   69 A'   24 A"   70 A'                 
  0.382   0.396   0.403   0.413   0.419   0.431   0.439   0.456
 71 A'   72 A'   73 A'   74 A'   75 A'   76 A'   77 A'   78 A'                 
  0.474   0.505   0.506   0.574   0.576   0.586   0.649   0.660
 79 A'   80 A'   81 A'   82 A'   83 A'   84 A'   85 A'   25 A"                 
  0.676   0.696   0.722   0.728   0.731   0.752   0.766   0.823
 86 A'   87 A'   26 A"   88 A'   27 A"   89 A'   28 A"   90 A'                 
  0.836   0.880   0.895   0.900   0.934   0.937   0.952   0.955
 91 A'   92 A'   93 A'   94 A'   95 A'   96 A'   97 A'   29 A"                 
  0.960   0.990   1.032   1.034   1.044   1.088   1.141   1.151
 98 A'   99 A'   30 A"  100 A'  101 A'  102 A'   31 A"   32 A"                 
  1.189   1.204   1.236   1.282   1.306   1.306   1.323   1.349
103 A'  104 A'  105 A'   33 A"  106 A'   34 A"   35 A"   36 A"                 
  1.369   1.390   1.391   1.440   1.440   1.476   1.478   1.513
107 A'   37 A"  108 A'   38 A"  109 A'  110 A'  111 A'  112 A'                 
  1.680   1.696   1.732   1.743   1.806   1.822   1.838   1.865
113 A'  114 A'  115 A'   39 A"  116 A'   40 A"  117 A'   41 A"                 
  1.874   1.909   1.939   1.944   1.994   2.051   2.076   2.118
118 A'  119 A'  120 A'   42 A"  121 A'  122 A'  123 A'  124 A'                 
  2.121   2.163   2.213   2.228   2.244   2.282   2.451   2.479
 43 A"  125 A'  126 A'  127 A'   44 A"  128 A'  129 A'   45 A"                 
  2.510   2.567   2.591   2.635   2.725   2.745   2.768   2.863
130 A'   46 A"  131 A'   47 A"   48 A"  132 A'  133 A'  134 A'                 
  2.883   2.931   2.943   2.984   2.988   3.094   3.111   3.121
135 A'  136 A'  137 A'  138 A'   49 A"   50 A"   51 A"  139 A'                 
  3.128   3.161   3.195   3.195   3.212   3.231   3.235   3.315
140 A'   52 A"  141 A'  142 A'   53 A"  143 A'   54 A"  144 A'                 
  3.440   3.496   3.658   3.664   3.731   3.757   3.791   3.828
145 A'  146 A'   55 A"   56 A"  147 A'  148 A'  149 A'  150 A'                 
  3.875   3.935   3.965   4.024   4.174   4.200   4.292   4.320
151 A'  152 A'  153 A'  154 A'   57 A"  155 A'   58 A"  156 A'                 
  4.402   4.513   4.931   5.072   5.207   5.345   5.472   5.508
157 A'  158 A'  159 A'  160 A'  161 A'  162 A'  163 A'   59 A"                 
  5.519   5.599   5.630   5.686   5.769   5.813   6.347   6.353
 60 A"  164 A'  165 A'  166 A'  167 A'  168 A'  169 A'  170 A'                 
  7.556   7.651   9.786   9.833  20.561  20.615  20.646  20.800
171 A'  172 A'  173 A'  174 A'  175 A'  176 A'  177 A'  178 A'                 
 30.069  30.167  40.793  40.833  80.116  80.155  80.192  80.329
179 A'  180 A'  181 A'  182 A'  183 A'  184 A'  185 A'  186 A'                 
116.190 116.283 159.141 159.173 321.941 321.975 322.013 322.134
187 A'  188 A'  189 A'  190 A'  191 A'  192 A'  193 A'  194 A'                 
460.292 460.379 631.841 631.8671431.4931431.5271431.5651431.671
195 A'  196 A'  197 A'  198 A'  199 A'  200 A'  201 A'  202 A'                 
*******2012.8512759.2382759.2608749.7128749.7488749.7858749.876
203 A'  204 A'  205 A'  206 A'  207 A'  208 A'  209 A'  210 A'                 
*******************************
211 A'  212 A'  213 A'  214 A'                                                 

 Beta MOs, Unrestricted
 -- Occupied --                  
-20.640 -20.639 -15.766 -15.695 -11.500 -11.463 -11.428 -11.369
  1 A'    2 A'    3 A'    4 A'    5 A'    6 A'    7 A'    8 A'                 
 -1.514  -1.475  -1.388  -1.317  -1.165  -1.020  -0.981  -0.889
  9 A'   10 A'   11 A'   12 A'   13 A'   14 A'   15 A'   16 A'                 
 -0.854  -0.783  -0.757  -0.736  -0.726  -0.701  -0.684  -0.612
 17 A'   18 A'   19 A'   20 A'    1 A"   21 A'   22 A'    2 A"                 
 -0.564  -0.555  -0.532  -0.459
 23 A'    3 A"   24 A'    4 A"                                                 
 -- Virtual --                   
 -0.116   0.004   0.013   0.016   0.020   0.028   0.031   0.032
  5 A"   25 A'   26 A'    6 A"   27 A'   28 A'   29 A'    7 A"                 
  0.035   0.035   0.040   0.045   0.047   0.049   0.051   0.054
 30 A'    8 A"    9 A"   31 A'   32 A'   33 A'   34 A'   35 A'                 
  0.056   0.063   0.064   0.067   0.074   0.083   0.086   0.087
 10 A"   36 A'   11 A"   37 A'   38 A'   12 A"   39 A'   40 A'                 
  0.088   0.095   0.100   0.106   0.110   0.117   0.120   0.124
 13 A"   41 A'   14 A"   42 A'   43 A'   44 A'   45 A'   15 A"                 
  0.131   0.135   0.140   0.143   0.155   0.156   0.169   0.174
 46 A'   47 A'   48 A'   49 A'   50 A'   16 A"   51 A'   17 A"                 
  0.182   0.184   0.197   0.206   0.209   0.213   0.220   0.224
 52 A'   18 A"   53 A'   54 A'   55 A'   19 A"   56 A'   57 A'                 
  0.240   0.242   0.248   0.250   0.257   0.259   0.266   0.286
 58 A'   59 A'   60 A'   20 A"   61 A'   21 A"   62 A'   63 A'                 
  0.297   0.313   0.322   0.334   0.344   0.356   0.365   0.377
 64 A'   22 A"   65 A'   66 A'   67 A'   68 A'   69 A'   23 A"                 
  0.385   0.388   0.390   0.394   0.406   0.417   0.422   0.435
 70 A'   71 A'   24 A"   72 A'   73 A'   74 A'   75 A'   76 A'                 
  0.441   0.459   0.476   0.509   0.511   0.575   0.580   0.601
 77 A'   78 A'   79 A'   80 A'   81 A'   82 A'   83 A'   84 A'                 
  0.653   0.680   0.683   0.697   0.707   0.729   0.742   0.758
 85 A'   25 A"   86 A'   87 A'   26 A"   88 A'   27 A"   28 A"                 
  0.760   0.825   0.847   0.882   0.899   0.905   0.936   0.940
 89 A'   90 A'   91 A'   92 A'   93 A'   94 A'   95 A'   96 A'                 
  0.953   0.965   0.997   0.997   1.034   1.044   1.046   1.092
 97 A'   98 A'   99 A'   29 A"  100 A'   30 A"  101 A'  102 A'                 
  1.157   1.163   1.193   1.213   1.238   1.302   1.310   1.336
 31 A"   32 A"  103 A'  104 A'  105 A'   33 A"  106 A'   34 A"                 
  1.353   1.364   1.373   1.397   1.398   1.436   1.446   1.482
 35 A"   36 A"  107 A'   37 A"  108 A'   38 A"  109 A'  110 A'                 
  1.488   1.518   1.685   1.699   1.736   1.748   1.810   1.825
111 A'  112 A'  113 A'  114 A'  115 A'   39 A"  116 A'   40 A"                 
  1.844   1.863   1.877   1.914   1.942   1.948   1.992   2.055
117 A'   41 A"  118 A'  119 A'  120 A'   42 A"  121 A'  122 A'                 
  2.076   2.119   2.140   2.164   2.221   2.231   2.260   2.283
123 A'  124 A'   43 A"  125 A'  126 A'  127 A'   44 A"  128 A'                 
  2.457   2.491   2.516   2.576   2.595   2.655   2.744   2.747
129 A'   45 A"  130 A'   46 A"  131 A'   47 A"   48 A"  132 A'                 
  2.773   2.868   2.897   2.935   2.948   2.988   3.012   3.083
133 A'  134 A'  135 A'  136 A'  137 A'  138 A'   49 A"   50 A"                 
  3.106   3.124   3.139   3.189   3.202   3.226   3.237   3.255
 51 A"  139 A'  140 A'   52 A"  141 A'  142 A'   53 A"  143 A'                 
  3.267   3.327   3.444   3.500   3.685   3.692   3.737   3.760
 54 A"  144 A'  145 A'  146 A'   55 A"   56 A"  147 A'  148 A'                 
  3.796   3.833   3.880   3.938   3.969   4.027   4.208   4.228
149 A'  150 A'  151 A'  152 A'  153 A'  154 A'  155 A'   57 A"                 
  4.293   4.329   4.406   4.518   4.932   5.076   5.212   5.353
 58 A"  156 A'  157 A'  158 A'  159 A'  160 A'  161 A'  162 A'                 
  5.469   5.557   5.563   5.603   5.633   5.695   5.775   5.816
163 A'   59 A"   60 A"  164 A'  165 A'  166 A'  167 A'  168 A'                 
  6.354   6.360   7.577   7.653   9.802   9.848  20.559  20.614
169 A'  170 A'  171 A'  172 A'  173 A'  174 A'  175 A'  176 A'                 
 20.643  20.802  30.081  30.167  40.800  40.841  80.115  80.155
177 A'  178 A'  179 A'  180 A'  181 A'  182 A'  183 A'  184 A'                 
 80.191  80.330 116.195 116.282 159.143 159.175 321.940 321.974
185 A'  186 A'  187 A'  188 A'  189 A'  190 A'  191 A'  192 A'                 
322.013 322.134 460.294 460.379 631.842 631.8681431.4931431.527
193 A'  194 A'  195 A'  196 A'  197 A'  198 A'  199 A'  200 A'                 
*******1431.6712012.7692012.8512759.2382759.2608749.7128749.748
201 A'  202 A'  203 A'  204 A'  205 A'  206 A'  207 A'  208 A'                 
*******8749.876********************************
209 A'  210 A'  211 A'  212 A'  213 A'  214 A'                                 
 --------------------------------------------------------------

          Ground-State Mulliken Net Atomic Charges

     Atom                 Charge (a.u.)    Spin (a.u.)
  --------------------------------------------------------
      1 C                     0.902563      -1.465821
      2 H                    -0.140771       0.583233
      3 H                     0.049460       0.268854
      4 H                     0.393838       0.019684
      5 C                    -0.325509       0.227317
      6 O                     0.175606       0.231597
      7 C                     0.136932      -0.703995
      8 O                     0.098068       0.293691
      9 N                    -0.694172       0.070745
     10 N                     0.078370       0.468462
     11 C                    -0.955446       2.016304
     12 H                     0.281061      -0.010072
  --------------------------------------------------------
  Sum of atomic charges =    -0.000000
  Sum of spin   charges =     2.000000

 -----------------------------------------------------------------
                    Cartesian Multipole Moments
 -----------------------------------------------------------------
    Charge (ESU x 10^10)
                 0.0000
    Dipole Moment (Debye)
         X       5.4424      Y       4.3272      Z      -0.0000
       Tot       6.9530
    Quadrupole Moments (Debye-Ang)
        XX     -73.8572     XY     -17.1302     YY     -73.5432
        XZ       0.0000     YZ       0.0000     ZZ     -60.1106
    Octopole Moments (Debye-Ang^2)
       XXX      73.2018    XXY      37.9591    XYY      62.2871
       YYY     170.3658    XXZ      -0.0000    XYZ      -0.0000
       YYZ      -0.0000    XZZ      21.6110    YZZ      42.8611
       ZZZ      -0.0000
    Hexadecapole Moments (Debye-Ang^3)
      XXXX   -1045.6288   XXXY    -204.0765   XXYY    -405.4691
      XYYY    -250.0447   YYYY   -1166.4535   XXXZ       0.0000
      XXYZ       0.0000   XYYZ      -0.0000   YYYZ       0.0000
      XXZZ    -197.7773   XYZZ     -54.2551   YYZZ    -224.6162
      XZZZ       0.0000   YZZZ       0.0000   ZZZZ    -233.1491
 -----------------------------------------------------------------
Archival summary:
1\1\n-62-29-35\SP\ProcedureUnspecified\BasisUnspecified\2244(3)\malop\WedJun511:25:232019WedJun511:25:232019\0\\#,ProcedureUnspecified,BasisUnspecified,\\0,3\N\H,1,1.01081\C,1,1.37966,2,115.327\O,3,1.21479,1,124.21,2,0,0\N,3,1.3852,1,112.713,2,180,0\H,5,1.00619,3,115.142,1,-180,0\C,5,1.37008,3,123.626,1,-0,0\H,7,1.07981,5,115.516,3,180,0\C,7,1.34802,5,121.979,3,-0,0\H,9,1.07615,7,121.525,5,-180,0\C,1,1.40335,2,116.035,3,-180,0\O,11,1.21832,1,120.541,2,0,0\\HF=-412.381973\\@

 Total job time:  4283.83s(wall), 9468.25s(cpu) 
 Wed Jun  5 11:25:23 2019

======= MOLDEN-FORMATTED INPUT FILE FOLLOWS =======
[Molden Format]
[Atoms] (Angs)
  C      1    6     -0.00714236     -1.70213747     -0.00000000
  H      2    1     -2.06882847     -1.44022412      0.00000000
  H      3    1     -0.12337987     -2.77567521      0.00000000
  H      4    1      0.04651892      1.98813947     -0.00000000
  C      5    6     -1.21953563      0.40211669      0.00000000
  O      6    8     -2.25921553      1.03043814      0.00000000
  C      7    6      1.28797806      0.34644937     -0.00000000
  O      8    8      2.31273661      1.00537216     -0.00000000
  N      9    7      0.03446295      0.97739857     -0.00000000
  N     10    7     -1.17287765     -0.98229824      0.00000000
  C     11    6      1.20107039     -1.10433419     -0.00000000
  H     12    1      2.11220096     -1.67699125     -0.00000000

======= END OF MOLDEN-FORMATTED INPUT FILE =======


        *************************************************************
        *                                                           *
        *  Thank you very much for using Q-Chem.  Have a nice day.  *
        *                                                           *
        *************************************************************


